 Entering Gaussian System, Link 0=/usr/local/shared/gaussian/x86_64_sse4/16-B01/g16/g16
 Initial command:
 /usr/local/shared/gaussian/x86_64_sse4/16-B01/g16/l1.exe "/scratch/sl884/18-TS1-freq-b3lyp-631gd-1/Gau-19755.inp" -scrdir="/scratch/sl884/18-TS1-freq-b3lyp-631gd-1/"
 Entering Link 1 = /usr/local/shared/gaussian/x86_64_sse4/16-B01/g16/l1.exe PID=     19759.
  
 Copyright (c) 1988-2017, Gaussian, Inc.  All Rights Reserved.
  
 This is part of the Gaussian(R) 16 program.  It is based on
 the Gaussian(R) 09 system (copyright 2009, Gaussian, Inc.),
 the Gaussian(R) 03 system (copyright 2003, Gaussian, Inc.),
 the Gaussian(R) 98 system (copyright 1998, Gaussian, Inc.),
 the Gaussian(R) 94 system (copyright 1995, Gaussian, Inc.),
 the Gaussian 92(TM) system (copyright 1992, Gaussian, Inc.),
 the Gaussian 90(TM) system (copyright 1990, Gaussian, Inc.),
 the Gaussian 88(TM) system (copyright 1988, Gaussian, Inc.),
 the Gaussian 86(TM) system (copyright 1986, Carnegie Mellon
 University), and the Gaussian 82(TM) system (copyright 1983,
 Carnegie Mellon University). Gaussian is a federally registered
 trademark of Gaussian, Inc.
  
 This software contains proprietary and confidential information,
 including trade secrets, belonging to Gaussian, Inc.
  
 This software is provided under written license and may be
 used, copied, transmitted, or stored only in accord with that
 written license.
  
 The following legend is applicable only to US Government
 contracts under FAR:
  
                    RESTRICTED RIGHTS LEGEND
  
 Use, reproduction and disclosure by the US Government is
 subject to restrictions as set forth in subparagraphs (a)
 and (c) of the Commercial Computer Software - Restricted
 Rights clause in FAR 52.227-19.
  
 Gaussian, Inc.
 340 Quinnipiac St., Bldg. 40, Wallingford CT 06492
  
  
 ---------------------------------------------------------------
 Warning -- This program may not be used in any manner that
 competes with the business of Gaussian, Inc. or will provide
 assistance to any competitor of Gaussian, Inc.  The licensee
 of this program is prohibited from giving any competitor of
 Gaussian, Inc. access to this program.  By using this program,
 the user acknowledges that Gaussian, Inc. is engaged in the
 business of creating and licensing software in the field of
 computational chemistry and represents and warrants to the
 licensee that it is not a competitor of Gaussian, Inc. and that
 it will not use this program in any manner prohibited above.
 ---------------------------------------------------------------
  

 Cite this work as:
 Gaussian 16, Revision B.01,
 M. J. Frisch, G. W. Trucks, H. B. Schlegel, G. E. Scuseria, 
 M. A. Robb, J. R. Cheeseman, G. Scalmani, V. Barone, 
 G. A. Petersson, H. Nakatsuji, X. Li, M. Caricato, A. V. Marenich, 
 J. Bloino, B. G. Janesko, R. Gomperts, B. Mennucci, H. P. Hratchian, 
 J. V. Ortiz, A. F. Izmaylov, J. L. Sonnenberg, D. Williams-Young, 
 F. Ding, F. Lipparini, F. Egidi, J. Goings, B. Peng, A. Petrone, 
 T. Henderson, D. Ranasinghe, V. G. Zakrzewski, J. Gao, N. Rega, 
 G. Zheng, W. Liang, M. Hada, M. Ehara, K. Toyota, R. Fukuda, 
 J. Hasegawa, M. Ishida, T. Nakajima, Y. Honda, O. Kitao, H. Nakai, 
 T. Vreven, K. Throssell, J. A. Montgomery, Jr., J. E. Peralta, 
 F. Ogliaro, M. J. Bearpark, J. J. Heyd, E. N. Brothers, K. N. Kudin, 
 V. N. Staroverov, T. A. Keith, R. Kobayashi, J. Normand, 
 K. Raghavachari, A. P. Rendell, J. C. Burant, S. S. Iyengar, 
 J. Tomasi, M. Cossi, J. M. Millam, M. Klene, C. Adamo, R. Cammi, 
 J. W. Ochterski, R. L. Martin, K. Morokuma, O. Farkas, 
 J. B. Foresman, and D. J. Fox, Gaussian, Inc., Wallingford CT, 2016.
 
 ******************************************
 Gaussian 16:  ES64L-G16RevB.01 20-Dec-2017
                15-Jul-2020 
 ******************************************
 %nproc=12
 Will use up to   12 processors via shared memory.
 %mem=12GB
 %chk=18-TS1-freq-b3lyp-631gd-1.chk
 ------------------------------------------------------
 # int=ultrafine b3lyp/6-31g(d) freq=(hpmodes,intmodes)
 ------------------------------------------------------
 1/10=4,18=20,30=1,38=1/1,3;
 2/9=110,12=2,17=6,18=5,40=1/2;
 3/5=1,6=6,7=1,11=2,25=1,30=1,71=2,74=-5,75=-5,140=1/1,2,3;
 4//1;
 5/5=2,38=5,98=1/2;
 8/6=4,10=90,11=11/1;
 11/6=1,8=1,9=11,15=111,16=1/1,2,10;
 10/6=1/2;
 6/7=2,8=2,9=2,10=2,28=1/1;
 7/8=31,10=1,25=1/1,2,3,16;
 1/10=4,18=20,30=1/3;
 99//99;
 -------------------------
 18-TS1-freq-b3lyp-631gd-1
 -------------------------
 Symbolic Z-matrix:
 Charge =  0 Multiplicity = 1
 C                     1.30323   0.72355   0.68231 
 C                     1.52286   1.01389  -0.66095 
 C                     2.58485   0.18629  -1.16867 
 C                     3.0799   -0.56537  -0.1496 
 C                     2.41379  -0.19115   1.1407 
 O                     0.43657  -1.73907   0.00288 
 C                    -0.10621  -0.66848   0.07659 
 C                    -1.30629  -0.05022  -0.03113 
 Cl                   -1.62953   1.65938   0.09493 
 Cl                   -2.7271   -1.0714   -0.12642 
 H                     0.73243   1.34754   1.35798 
 H                     0.95701   1.73164  -1.24306 
 H                     2.89161   0.14431  -2.20712 
 H                     3.8535   -1.32066  -0.22981 
 H                     3.10526   0.38009   1.78079 
 H                     2.07773  -1.05701   1.71796 
 
 Add virtual bond connecting atoms C7         and C1         Dist= 3.91D+00.

 GradGradGradGradGradGradGradGradGradGradGradGradGradGradGradGradGradGrad
 Berny optimization.
 Initialization pass.
                           ----------------------------
                           !    Initial Parameters    !
                           ! (Angstroms and Degrees)  !
 --------------------------                            --------------------------
 ! Name  Definition              Value          Derivative Info.                !
 --------------------------------------------------------------------------------
 ! R1    R(1,2)                  1.3917         calculate D2E/DX2 analytically  !
 ! R2    R(1,5)                  1.51           calculate D2E/DX2 analytically  !
 ! R3    R(1,7)                  2.0715         calculate D2E/DX2 analytically  !
 ! R4    R(1,11)                 1.0825         calculate D2E/DX2 analytically  !
 ! R5    R(2,3)                  1.4389         calculate D2E/DX2 analytically  !
 ! R6    R(2,12)                 1.0836         calculate D2E/DX2 analytically  !
 ! R7    R(3,4)                  1.3596         calculate D2E/DX2 analytically  !
 ! R8    R(3,13)                 1.0836         calculate D2E/DX2 analytically  !
 ! R9    R(4,5)                  1.4995         calculate D2E/DX2 analytically  !
 ! R10   R(4,14)                 1.0841         calculate D2E/DX2 analytically  !
 ! R11   R(5,15)                 1.1019         calculate D2E/DX2 analytically  !
 ! R12   R(5,16)                 1.0936         calculate D2E/DX2 analytically  !
 ! R13   R(6,7)                  1.2026         calculate D2E/DX2 analytically  !
 ! R14   R(7,8)                  1.3543         calculate D2E/DX2 analytically  !
 ! R15   R(8,9)                  1.7445         calculate D2E/DX2 analytically  !
 ! R16   R(8,10)                 1.7523         calculate D2E/DX2 analytically  !
 ! A1    A(2,1,5)              107.6563         calculate D2E/DX2 analytically  !
 ! A2    A(2,1,7)               88.0139         calculate D2E/DX2 analytically  !
 ! A3    A(2,1,11)             124.4313         calculate D2E/DX2 analytically  !
 ! A4    A(5,1,7)              100.4925         calculate D2E/DX2 analytically  !
 ! A5    A(5,1,11)             123.1982         calculate D2E/DX2 analytically  !
 ! A6    A(7,1,11)             102.187          calculate D2E/DX2 analytically  !
 ! A7    A(1,2,3)              109.6962         calculate D2E/DX2 analytically  !
 ! A8    A(1,2,12)             125.0488         calculate D2E/DX2 analytically  !
 ! A9    A(3,2,12)             125.2269         calculate D2E/DX2 analytically  !
 ! A10   A(2,3,4)              108.7979         calculate D2E/DX2 analytically  !
 ! A11   A(2,3,13)             124.7041         calculate D2E/DX2 analytically  !
 ! A12   A(4,3,13)             126.4266         calculate D2E/DX2 analytically  !
 ! A13   A(3,4,5)              110.1962         calculate D2E/DX2 analytically  !
 ! A14   A(3,4,14)             126.1223         calculate D2E/DX2 analytically  !
 ! A15   A(5,4,14)             123.6758         calculate D2E/DX2 analytically  !
 ! A16   A(1,5,4)              102.5132         calculate D2E/DX2 analytically  !
 ! A17   A(1,5,15)             108.8947         calculate D2E/DX2 analytically  !
 ! A18   A(1,5,16)             114.4477         calculate D2E/DX2 analytically  !
 ! A19   A(4,5,15)             110.5157         calculate D2E/DX2 analytically  !
 ! A20   A(4,5,16)             113.1496         calculate D2E/DX2 analytically  !
 ! A21   A(15,5,16)            107.2576         calculate D2E/DX2 analytically  !
 ! A22   A(1,7,6)              108.0027         calculate D2E/DX2 analytically  !
 ! A23   A(1,7,8)              108.6274         calculate D2E/DX2 analytically  !
 ! A24   A(6,7,8)              143.2734         calculate D2E/DX2 analytically  !
 ! A25   A(7,8,9)              127.2902         calculate D2E/DX2 analytically  !
 ! A26   A(7,8,10)             117.1801         calculate D2E/DX2 analytically  !
 ! A27   A(9,8,10)             115.1387         calculate D2E/DX2 analytically  !
 ! D1    D(5,1,2,3)              8.9086         calculate D2E/DX2 analytically  !
 ! D2    D(5,1,2,12)          -172.9384         calculate D2E/DX2 analytically  !
 ! D3    D(7,1,2,3)            -91.4721         calculate D2E/DX2 analytically  !
 ! D4    D(7,1,2,12)            86.6809         calculate D2E/DX2 analytically  !
 ! D5    D(11,1,2,3)           165.094          calculate D2E/DX2 analytically  !
 ! D6    D(11,1,2,12)          -16.753          calculate D2E/DX2 analytically  !
 ! D7    D(2,1,5,4)            -10.6424         calculate D2E/DX2 analytically  !
 ! D8    D(2,1,5,15)           106.4483         calculate D2E/DX2 analytically  !
 ! D9    D(2,1,5,16)          -133.5482         calculate D2E/DX2 analytically  !
 ! D10   D(7,1,5,4)             80.616          calculate D2E/DX2 analytically  !
 ! D11   D(7,1,5,15)          -162.2933         calculate D2E/DX2 analytically  !
 ! D12   D(7,1,5,16)           -42.2897         calculate D2E/DX2 analytically  !
 ! D13   D(11,1,5,4)          -167.1893         calculate D2E/DX2 analytically  !
 ! D14   D(11,1,5,15)          -50.0985         calculate D2E/DX2 analytically  !
 ! D15   D(11,1,5,16)           69.905          calculate D2E/DX2 analytically  !
 ! D16   D(2,1,7,6)             93.9848         calculate D2E/DX2 analytically  !
 ! D17   D(2,1,7,8)            -88.7232         calculate D2E/DX2 analytically  !
 ! D18   D(5,1,7,6)            -13.6067         calculate D2E/DX2 analytically  !
 ! D19   D(5,1,7,8)            163.6853         calculate D2E/DX2 analytically  !
 ! D20   D(11,1,7,6)          -141.1734         calculate D2E/DX2 analytically  !
 ! D21   D(11,1,7,8)            36.1186         calculate D2E/DX2 analytically  !
 ! D22   D(1,2,3,4)             -3.1733         calculate D2E/DX2 analytically  !
 ! D23   D(1,2,3,13)           173.9194         calculate D2E/DX2 analytically  !
 ! D24   D(12,2,3,4)           178.6777         calculate D2E/DX2 analytically  !
 ! D25   D(12,2,3,13)           -4.2295         calculate D2E/DX2 analytically  !
 ! D26   D(2,3,4,5)             -4.0565         calculate D2E/DX2 analytically  !
 ! D27   D(2,3,4,14)           176.7927         calculate D2E/DX2 analytically  !
 ! D28   D(13,3,4,5)           178.914          calculate D2E/DX2 analytically  !
 ! D29   D(13,3,4,14)           -0.2368         calculate D2E/DX2 analytically  !
 ! D30   D(3,4,5,1)              8.9741         calculate D2E/DX2 analytically  !
 ! D31   D(3,4,5,15)          -106.9526         calculate D2E/DX2 analytically  !
 ! D32   D(3,4,5,16)           132.75           calculate D2E/DX2 analytically  !
 ! D33   D(14,4,5,1)          -171.8502         calculate D2E/DX2 analytically  !
 ! D34   D(14,4,5,15)           72.2231         calculate D2E/DX2 analytically  !
 ! D35   D(14,4,5,16)          -48.0742         calculate D2E/DX2 analytically  !
 ! D36   D(1,7,8,9)              7.6826         calculate D2E/DX2 analytically  !
 ! D37   D(1,7,8,10)          -164.7474         calculate D2E/DX2 analytically  !
 ! D38   D(6,7,8,9)           -176.6266         calculate D2E/DX2 analytically  !
 ! D39   D(6,7,8,10)            10.9434         calculate D2E/DX2 analytically  !
 --------------------------------------------------------------------------------
 Trust Radius=3.00D-01 FncErr=1.00D-07 GrdErr=1.00D-07 EigMax=2.50D+02 EigMin=1.00D-04
 Number of steps in this run=      2 maximum allowed number of steps=      2.
 GradGradGradGradGradGradGradGradGradGradGradGradGradGradGradGradGradGrad

                          Input orientation:                          
 ---------------------------------------------------------------------
 Center     Atomic      Atomic             Coordinates (Angstroms)
 Number     Number       Type             X           Y           Z
 ---------------------------------------------------------------------
      1          6           0        1.303230    0.723546    0.682312
      2          6           0        1.522857    1.013894   -0.660950
      3          6           0        2.584848    0.186286   -1.168665
      4          6           0        3.079896   -0.565366   -0.149596
      5          6           0        2.413785   -0.191154    1.140696
      6          8           0        0.436566   -1.739066    0.002880
      7          6           0       -0.106212   -0.668477    0.076594
      8          6           0       -1.306295   -0.050224   -0.031128
      9         17           0       -1.629530    1.659380    0.094925
     10         17           0       -2.727101   -1.071404   -0.126416
     11          1           0        0.732425    1.347538    1.357982
     12          1           0        0.957013    1.731636   -1.243058
     13          1           0        2.891605    0.144309   -2.207122
     14          1           0        3.853497   -1.320661   -0.229807
     15          1           0        3.105256    0.380088    1.780793
     16          1           0        2.077733   -1.057014    1.717959
 ---------------------------------------------------------------------
                    Distance matrix (angstroms):
                    1          2          3          4          5
     1  C    0.000000
     2  C    1.391722   0.000000
     3  C    2.314586   1.438935   0.000000
     4  C    2.347319   2.275943   1.359616   0.000000
     5  C    1.510008   2.343464   2.346246   1.499531   0.000000
     6  O    2.697627   3.033066   3.113617   2.896207   2.756819
     7  C    2.071509   2.455241   3.085951   3.195791   2.776785
     8  C    2.813776   3.087576   4.060902   4.417927   3.902823
     9  Cl   3.133989   3.305381   4.639790   5.214209   4.567987
    10  Cl   4.485471   4.764067   5.557416   5.829050   5.367413
    11  H    1.082458   2.193670   3.341246   3.382693   2.289489
    12  H    2.200718   1.083597   2.245771   3.313383   3.391399
    13  H    3.347728   2.240602   1.083630   2.184606   3.398343
    14  H    3.393318   3.326847   2.182158   1.084142   2.286227
    15  H    2.138205   2.977886   3.001281   2.149634   1.101896
    16  H    2.200639   3.202461   3.183639   2.175732   1.093562
                    6          7          8          9         10
     6  O    0.000000
     7  C    1.202582   0.000000
     8  C    2.427119   1.354267   0.000000
     9  Cl   3.978274   2.782041   1.744453   0.000000
    10  Cl   3.235936   2.659440   1.752307   2.951412   0.000000
    11  H    3.383926   2.531716   2.835444   2.696551   4.474711
    12  H    3.724110   2.938107   3.125118   2.913009   4.761997
    13  H    3.802424   3.855241   4.732352   5.294858   6.113686
    14  H    3.450308   4.024739   5.317606   6.248974   6.586129
    15  H    3.843656   3.783822   4.788529   5.186226   6.305606
    16  H    2.469842   2.759467   3.940124   4.874098   5.146684
                   11         12         13         14         15
    11  H    0.000000
    12  H    2.638822   0.000000
    13  H    4.338178   2.681729   0.000000
    14  H    4.402437   4.328142   2.642186   0.000000
    15  H    2.597124   3.947823   4.000588   2.737686   0.000000
    16  H    2.778724   4.219029   4.184713   2.648894   1.767771
                   16
    16  H    0.000000
 Stoichiometry    C7H6Cl2O
 Framework group  C1[X(C7H6Cl2O)]
 Deg. of freedom    42
 Full point group                 C1      NOp   1
 Largest Abelian subgroup         C1      NOp   1
 Largest concise Abelian subgroup C1      NOp   1
                         Standard orientation:                         
 ---------------------------------------------------------------------
 Center     Atomic      Atomic             Coordinates (Angstroms)
 Number     Number       Type             X           Y           Z
 ---------------------------------------------------------------------
      1          6           0        1.303230    0.723546    0.682312
      2          6           0        1.522857    1.013894   -0.660950
      3          6           0        2.584848    0.186286   -1.168665
      4          6           0        3.079896   -0.565366   -0.149596
      5          6           0        2.413785   -0.191154    1.140696
      6          8           0        0.436566   -1.739066    0.002880
      7          6           0       -0.106212   -0.668477    0.076594
      8          6           0       -1.306295   -0.050224   -0.031128
      9         17           0       -1.629530    1.659380    0.094925
     10         17           0       -2.727101   -1.071404   -0.126416
     11          1           0        0.732425    1.347538    1.357982
     12          1           0        0.957013    1.731636   -1.243058
     13          1           0        2.891605    0.144309   -2.207122
     14          1           0        3.853497   -1.320661   -0.229807
     15          1           0        3.105256    0.380088    1.780793
     16          1           0        2.077733   -1.057014    1.717959
 ---------------------------------------------------------------------
 Rotational constants (GHZ):           1.8050588           0.6442450           0.5335055
 Standard basis: 6-31G(d) (6D, 7F)
 There are   170 symmetry adapted cartesian basis functions of A   symmetry.
 There are   170 symmetry adapted basis functions of A   symmetry.
   170 basis functions,   352 primitive gaussians,   170 cartesian basis functions
    45 alpha electrons       45 beta electrons
       nuclear repulsion energy       663.3411366359 Hartrees.
 NAtoms=   16 NActive=   16 NUniq=   16 SFac= 1.00D+00 NAtFMM=   60 NAOKFM=F Big=F
 Integral buffers will be    131072 words long.
 Raffenetti 2 integral format.
 Two-electron integral symmetry is turned on.
 One-electron integrals computed using PRISM.
 NBasis=   170 RedAO= T EigKep=  1.53D-03  NBF=   170
 NBsUse=   170 1.00D-06 EigRej= -1.00D+00 NBFU=   170
 ExpMin= 1.43D-01 ExpMax= 2.52D+04 ExpMxC= 3.78D+03 IAcc=3 IRadAn=         5 AccDes= 0.00D+00
 Harris functional with IExCor=  402 and IRadAn=       5 diagonalized for initial guess.
 HarFok:  IExCor=  402 AccDes= 0.00D+00 IRadAn=         5 IDoV= 1 UseB2=F ITyADJ=14
 ICtDFT=  3500011 ScaDFX=  1.000000  1.000000  1.000000  1.000000
 FoFCou: FMM=F IPFlag=           0 FMFlag=      100000 FMFlg1=           0
         NFxFlg=           0 DoJE=T BraDBF=F KetDBF=T FulRan=T
         wScrn=  0.000000 ICntrl=       500 IOpCl=  0 I1Cent=   200000004 NGrid=           0
         NMat0=    1 NMatS0=      1 NMatT0=    0 NMatD0=    1 NMtDS0=    0 NMtDT0=    0
 Petite list used in FoFCou.
 Requested convergence on RMS density matrix=1.00D-08 within 128 cycles.
 Requested convergence on MAX density matrix=1.00D-06.
 Requested convergence on             energy=1.00D-06.
 No special actions if energy rises.
 Integral accuracy reduced to 1.0D-05 until final iterations.
 Initial convergence to 1.0D-05 achieved.  Increase integral accuracy.
 SCF Done:  E(RB3LYP) =  -1265.85487931     A.U. after   17 cycles
            NFock= 17  Conv=0.96D-08     -V/T= 2.0048
 DoSCS=F DFT=T ScalE2(SS,OS)=  1.000000  1.000000
 Range of M.O.s used for correlation:     1   170
 NBasis=   170 NAE=    45 NBE=    45 NFC=     0 NFV=     0
 NROrb=    170 NOA=    45 NOB=    45 NVA=   125 NVB=   125
 Symmetrizing basis deriv contribution to polar:
 IMax=3 JMax=2 DiffMx= 0.00D+00
 G2DrvN: will do    17 centers at a time, making    1 passes.
 Calling FoFCou, ICntrl=  3107 FMM=F I1Cent=   0 AccDes= 0.00D+00.
 End of G2Drv F.D. properties file   721 does not exist.
 End of G2Drv F.D. properties file   722 does not exist.
 End of G2Drv F.D. properties file   788 does not exist.
          IDoAtm=1111111111111111
          Differentiating once with respect to electric field.
                with respect to dipole field.
          Differentiating once with respect to nuclear coordinates.
 Keep R1 ints in memory in canonical form, NReq=117582747.
          There are    51 degrees of freedom in the 1st order CPHF.  IDoFFX=6 NUNeed=     3.
     48 vectors produced by pass  0 Test12= 1.10D-14 1.96D-09 XBig12= 2.41D+02 9.10D+00.
 AX will form    48 AO Fock derivatives at one time.
     48 vectors produced by pass  1 Test12= 1.10D-14 1.96D-09 XBig12= 4.06D+01 1.63D+00.
     48 vectors produced by pass  2 Test12= 1.10D-14 1.96D-09 XBig12= 4.20D-01 1.09D-01.
     48 vectors produced by pass  3 Test12= 1.10D-14 1.96D-09 XBig12= 4.71D-03 9.07D-03.
     48 vectors produced by pass  4 Test12= 1.10D-14 1.96D-09 XBig12= 8.72D-06 3.80D-04.
     39 vectors produced by pass  5 Test12= 1.10D-14 1.96D-09 XBig12= 1.06D-08 1.76D-05.
      8 vectors produced by pass  6 Test12= 1.10D-14 1.96D-09 XBig12= 1.00D-11 3.77D-07.
      3 vectors produced by pass  7 Test12= 1.10D-14 1.96D-09 XBig12= 9.65D-15 1.54D-08.
 InvSVY:  IOpt=1 It=  1 EMax= 8.88D-15
 Solved reduced A of dimension   290 with    51 vectors.
 Isotropic polarizability for W=    0.000000      103.36 Bohr**3.
 End of Minotr F.D. properties file   721 does not exist.
 End of Minotr F.D. properties file   722 does not exist.
 End of Minotr F.D. properties file   788 does not exist.

 **********************************************************************

            Population analysis using the SCF Density.

 **********************************************************************

 Orbital symmetries:
       Occupied  (A) (A) (A) (A) (A) (A) (A) (A) (A) (A) (A) (A)
                 (A) (A) (A) (A) (A) (A) (A) (A) (A) (A) (A) (A)
                 (A) (A) (A) (A) (A) (A) (A) (A) (A) (A) (A) (A)
                 (A) (A) (A) (A) (A) (A) (A) (A) (A)
       Virtual   (A) (A) (A) (A) (A) (A) (A) (A) (A) (A) (A) (A)
                 (A) (A) (A) (A) (A) (A) (A) (A) (A) (A) (A) (A)
                 (A) (A) (A) (A) (A) (A) (A) (A) (A) (A) (A) (A)
                 (A) (A) (A) (A) (A) (A) (A) (A) (A) (A) (A) (A)
                 (A) (A) (A) (A) (A) (A) (A) (A) (A) (A) (A) (A)
                 (A) (A) (A) (A) (A) (A) (A) (A) (A) (A) (A) (A)
                 (A) (A) (A) (A) (A) (A) (A) (A) (A) (A) (A) (A)
                 (A) (A) (A) (A) (A) (A) (A) (A) (A) (A) (A) (A)
                 (A) (A) (A) (A) (A) (A) (A) (A) (A) (A) (A) (A)
                 (A) (A) (A) (A) (A) (A) (A) (A) (A) (A) (A) (A)
                 (A) (A) (A) (A) (A)
 The electronic state is 1-A.
 Alpha  occ. eigenvalues -- -101.55954-101.54696 -19.16353 -10.29287 -10.27815
 Alpha  occ. eigenvalues --  -10.23926 -10.23062 -10.22994 -10.21823 -10.21609
 Alpha  occ. eigenvalues --   -9.47533  -9.46263  -7.23974  -7.22942  -7.22908
 Alpha  occ. eigenvalues --   -7.22718  -7.21661  -7.21636  -1.06015  -0.89982
 Alpha  occ. eigenvalues --   -0.89270  -0.82435  -0.74674  -0.73917  -0.70365
 Alpha  occ. eigenvalues --   -0.58885  -0.56493  -0.54762  -0.51511  -0.49242
 Alpha  occ. eigenvalues --   -0.46191  -0.44885  -0.43215  -0.42085  -0.40813
 Alpha  occ. eigenvalues --   -0.39809  -0.39131  -0.38041  -0.35983  -0.33475
 Alpha  occ. eigenvalues --   -0.31963  -0.31598  -0.30194  -0.26148  -0.20145
 Alpha virt. eigenvalues --   -0.08661  -0.01353   0.01089   0.02983   0.08118
 Alpha virt. eigenvalues --    0.08967   0.10532   0.12621   0.14239   0.14804
 Alpha virt. eigenvalues --    0.14876   0.16860   0.17807   0.20157   0.25692
 Alpha virt. eigenvalues --    0.28630   0.31562   0.32340   0.35885   0.39853
 Alpha virt. eigenvalues --    0.40414   0.42408   0.43674   0.46059   0.47163
 Alpha virt. eigenvalues --    0.49376   0.49823   0.51117   0.51900   0.54247
 Alpha virt. eigenvalues --    0.54443   0.55396   0.56867   0.58132   0.60504
 Alpha virt. eigenvalues --    0.61426   0.62696   0.66378   0.67092   0.69952
 Alpha virt. eigenvalues --    0.71575   0.72984   0.75765   0.79179   0.79492
 Alpha virt. eigenvalues --    0.81211   0.81393   0.82495   0.83564   0.84235
 Alpha virt. eigenvalues --    0.84628   0.86911   0.87740   0.89080   0.90698
 Alpha virt. eigenvalues --    0.91198   0.92509   0.93791   0.96281   0.99043
 Alpha virt. eigenvalues --    1.01855   1.04200   1.07591   1.09671   1.12079
 Alpha virt. eigenvalues --    1.14129   1.15904   1.17474   1.19865   1.22195
 Alpha virt. eigenvalues --    1.29108   1.34981   1.37893   1.39154   1.40552
 Alpha virt. eigenvalues --    1.43730   1.47186   1.49930   1.52209   1.64487
 Alpha virt. eigenvalues --    1.65964   1.75921   1.76101   1.79764   1.83303
 Alpha virt. eigenvalues --    1.85633   1.89299   1.93531   1.95016   1.99455
 Alpha virt. eigenvalues --    2.00558   2.03136   2.03778   2.05209   2.09535
 Alpha virt. eigenvalues --    2.18322   2.18620   2.22497   2.24873   2.28019
 Alpha virt. eigenvalues --    2.29541   2.37601   2.44325   2.47710   2.48173
 Alpha virt. eigenvalues --    2.58314   2.61368   2.65241   2.71828   2.72547
 Alpha virt. eigenvalues --    2.73362   2.89927   2.94444   2.96617   3.09501
 Alpha virt. eigenvalues --    3.99470   4.06544   4.13282   4.24838   4.29271
 Alpha virt. eigenvalues --    4.29526   4.35919   4.46307   4.54820   4.56232
          Condensed to atoms (all electrons):
               1          2          3          4          5          6
     1  C    5.174378   0.528467  -0.054810  -0.079209   0.359241  -0.046664
     2  C    0.528467   4.932069   0.459803  -0.030026  -0.088802  -0.020973
     3  C   -0.054810   0.459803   4.827049   0.618695  -0.057741   0.005237
     4  C   -0.079209  -0.030026   0.618695   4.916318   0.379048   0.010386
     5  C    0.359241  -0.088802  -0.057741   0.379048   5.104725   0.000502
     6  O   -0.046664  -0.020973   0.005237   0.010386   0.000502   8.001553
     7  C    0.119110   0.010561  -0.008876  -0.006621  -0.014922   0.541492
     8  C   -0.034766  -0.001658   0.000239   0.000475   0.001695  -0.072713
     9  Cl  -0.005144  -0.007147   0.000607  -0.000133   0.001072   0.001615
    10  Cl   0.002318   0.000511  -0.000046  -0.000027  -0.000043  -0.000283
    11  H    0.368847  -0.038118   0.005568   0.003861  -0.036763   0.000827
    12  H   -0.047313   0.364053  -0.038498   0.005071   0.006677   0.000059
    13  H    0.005114  -0.047014   0.369942  -0.047156   0.007208   0.000071
    14  H    0.004488   0.005771  -0.036676   0.364998  -0.043332  -0.000406
    15  H   -0.025897   0.000463  -0.001625  -0.025890   0.345076   0.000632
    16  H   -0.029237   0.003099   0.002614  -0.026662   0.357986   0.009506
               7          8          9         10         11         12
     1  C    0.119110  -0.034766  -0.005144   0.002318   0.368847  -0.047313
     2  C    0.010561  -0.001658  -0.007147   0.000511  -0.038118   0.364053
     3  C   -0.008876   0.000239   0.000607  -0.000046   0.005568  -0.038498
     4  C   -0.006621   0.000475  -0.000133  -0.000027   0.003861   0.005071
     5  C   -0.014922   0.001695   0.001072  -0.000043  -0.036763   0.006677
     6  O    0.541492  -0.072713   0.001615  -0.000283   0.000827   0.000059
     7  C    4.590516   0.459933  -0.064793  -0.068251  -0.006749  -0.002192
     8  C    0.459933   5.578284   0.205459   0.207527  -0.005592  -0.000680
     9  Cl  -0.064793   0.205459  16.907104  -0.061630   0.004918   0.005255
    10  Cl  -0.068251   0.207527  -0.061630  16.896027   0.000023   0.000038
    11  H   -0.006749  -0.005592   0.004918   0.000023   0.517794  -0.003417
    12  H   -0.002192  -0.000680   0.005255   0.000038  -0.003417   0.528338
    13  H   -0.000084  -0.000011   0.000006  -0.000001  -0.000107  -0.002101
    14  H    0.000146   0.000002   0.000000  -0.000000  -0.000087  -0.000131
    15  H    0.001425  -0.000001  -0.000024   0.000000  -0.000173  -0.000163
    16  H   -0.003646   0.000027   0.000023  -0.000005   0.000236  -0.000140
              13         14         15         16
     1  C    0.005114   0.004488  -0.025897  -0.029237
     2  C   -0.047014   0.005771   0.000463   0.003099
     3  C    0.369942  -0.036676  -0.001625   0.002614
     4  C   -0.047156   0.364998  -0.025890  -0.026662
     5  C    0.007208  -0.043332   0.345076   0.357986
     6  O    0.000071  -0.000406   0.000632   0.009506
     7  C   -0.000084   0.000146   0.001425  -0.003646
     8  C   -0.000011   0.000002  -0.000001   0.000027
     9  Cl   0.000006   0.000000  -0.000024   0.000023
    10  Cl  -0.000001  -0.000000   0.000000  -0.000005
    11  H   -0.000107  -0.000087  -0.000173   0.000236
    12  H   -0.002101  -0.000131  -0.000163  -0.000140
    13  H    0.562560  -0.003484  -0.000174  -0.000122
    14  H   -0.003484   0.545728   0.000563  -0.000595
    15  H   -0.000174   0.000563   0.545064  -0.025628
    16  H   -0.000122  -0.000595  -0.025628   0.505660
 Mulliken charges:
               1
     1  C   -0.238923
     2  C   -0.071059
     3  C   -0.091483
     4  C   -0.083129
     5  C   -0.321628
     6  O   -0.430842
     7  C    0.452952
     8  C   -0.338220
     9  Cl   0.012812
    10  Cl   0.023840
    11  H    0.188933
    12  H    0.185145
    13  H    0.155352
    14  H    0.163013
    15  H    0.186353
    16  H    0.206884
 Sum of Mulliken charges =  -0.00000
 Mulliken charges with hydrogens summed into heavy atoms:
               1
     1  C   -0.049990
     2  C    0.114086
     3  C    0.063870
     4  C    0.079885
     5  C    0.071608
     6  O   -0.430842
     7  C    0.452952
     8  C   -0.338220
     9  Cl   0.012812
    10  Cl   0.023840
 APT charges:
               1
     1  C   -0.180452
     2  C    0.200233
     3  C   -0.161669
     4  C    0.073171
     5  C   -0.044675
     6  O   -0.695898
     7  C    0.748702
     8  C    0.346492
     9  Cl  -0.255162
    10  Cl  -0.367078
    11  H    0.067996
    12  H    0.058447
    13  H    0.049520
    14  H    0.045513
    15  H    0.038494
    16  H    0.076365
 Sum of APT charges =  -0.00000
 APT charges with hydrogens summed into heavy atoms:
               1
     1  C   -0.112455
     2  C    0.258680
     3  C   -0.112149
     4  C    0.118683
     5  C    0.070184
     6  O   -0.695898
     7  C    0.748702
     8  C    0.346492
     9  Cl  -0.255162
    10  Cl  -0.367078
 Electronic spatial extent (au):  <R**2>=           2036.2167
 Charge=             -0.0000 electrons
 Dipole moment (field-independent basis, Debye):
    X=              4.6176    Y=              1.9760    Z=              0.4196  Tot=              5.0401
 Quadrupole moment (field-independent basis, Debye-Ang):
   XX=            -65.7566   YY=            -73.5751   ZZ=            -66.9347
   XY=             -0.4924   XZ=              0.2707   YZ=             -0.9768
 Traceless Quadrupole moment (field-independent basis, Debye-Ang):
   XX=              2.9989   YY=             -4.8196   ZZ=              1.8207
   XY=             -0.4924   XZ=              0.2707   YZ=             -0.9768
 Octapole moment (field-independent basis, Debye-Ang**2):
  XXX=             19.4761  YYY=              7.1041  ZZZ=             -1.1123  XYY=             -4.6035
  XXY=            -12.9651  XXZ=              0.5854  XZZ=              7.3978  YZZ=              0.9800
  YYZ=              0.5848  XYZ=             -0.8679
 Hexadecapole moment (field-independent basis, Debye-Ang**3):
 XXXX=          -1759.7424 YYYY=           -561.6409 ZZZZ=           -227.1226 XXXY=            -35.8631
 XXXZ=              5.5041 YYYX=             -7.7307 YYYZ=             -1.1300 ZZZX=             -5.4553
 ZZZY=             -1.8305 XXYY=           -386.7557 XXZZ=           -325.9231 YYZZ=           -131.3153
 XXYZ=              3.9763 YYXZ=              1.6900 ZZXY=              1.1959
 N-N= 6.633411366359D+02 E-N=-4.316940275874D+03  KE= 1.259765840596D+03
  Exact polarizability: 149.638  -2.147  89.922  -0.792  -3.532  70.527
 Approx polarizability: 226.323  -6.303 171.113  -2.518 -13.129 116.187
 Calling FoFJK, ICntrl=    100127 FMM=F ISym2X=0 I1Cent= 0 IOpClX= 0 NMat=1 NMatS=1 NMatT=0.
 Full mass-weighted force constant matrix:
 Low frequencies --- -201.1851   -3.6157   -2.5599   -1.4342   -0.0008    0.0030
 Low frequencies ---    0.0032   68.8474   95.3055
 ******    1 imaginary frequencies (negative Signs) ****** 
 Diagonal vibrational polarizability:
       60.7852108      22.0815222       8.9583513
 Harmonic frequencies (cm**-1), IR intensities (KM/Mole), Raman scattering
 activities (A**4/AMU), depolarization ratios for plane and unpolarized
 incident light, reduced masses (AMU), force constants (mDyne/A),
 and normal coordinates:
                           1         2         3         4         5
                           A         A         A         A         A
       Frequencies ---  -201.1851   68.8471   95.3054  129.3912  165.9456
    Reduced masses ---     9.9766    8.5699    4.9606    4.6681    7.2096
   Force constants ---     0.2379    0.0239    0.0265    0.0460    0.1170
    IR Intensities ---    62.6373    0.8080    0.7667    2.6224    7.1627
 Coord Atom Element:
   1     1     6          0.42564  -0.08602   0.00755  -0.11664  -0.12048
   2     1     6          0.39747  -0.08935   0.12397  -0.09894   0.09571
   3     1     6          0.10930   0.00010  -0.15097  -0.12793   0.07276
   1     2     6          0.08942   0.11995   0.13259  -0.05363  -0.25198
   2     2     6          0.07612   0.08878  -0.05041  -0.12654  -0.04645
   3     2     6          0.09078   0.06760  -0.16795  -0.13030   0.02500
   1     3     6          0.04271   0.17879   0.09945   0.14590  -0.28036
   2     3     6         -0.04935   0.14084  -0.20200   0.04547  -0.08949
   3     3     6          0.02382   0.11738   0.01419   0.00392   0.03593
   1     4     6          0.12380   0.02436  -0.04602   0.22635  -0.19447
   2     4     6          0.03639   0.00414  -0.12598   0.21864   0.02689
   3     4     6          0.00995   0.09474   0.14484   0.09245   0.07521
   1     5     6          0.17016  -0.14466  -0.09145  -0.00749  -0.08660
   2     5     6          0.11022  -0.14281   0.10696   0.10091   0.16883
   3     5     6          0.02753   0.04785   0.05028   0.00270   0.08930
   1     6     8          0.00174   0.00534   0.04630  -0.07753   0.17136
   2     6     8         -0.06137   0.02209   0.09440  -0.11644  -0.02416
   3     6     8         -0.07659  -0.35150  -0.14029   0.00816  -0.19587
   1     7     6         -0.33078   0.01074   0.01209  -0.02052   0.06926
   2     7     6         -0.30014   0.01958   0.07435  -0.08158  -0.08500
   3     7     6         -0.20329  -0.21630  -0.09240  -0.01641  -0.11834
   1     8     6         -0.13822  -0.01853  -0.01370  -0.01227   0.07709
   2     8     6         -0.05069  -0.00306   0.03280  -0.04227  -0.06908
   3     8     6          0.08826  -0.04793  -0.00380  -0.05228  -0.02087
   1     9    17          0.02326  -0.00480  -0.08873   0.06691   0.21939
   2     9    17         -0.03563   0.00660   0.00745  -0.03079  -0.04272
   3     9    17         -0.02141  -0.14977   0.15165   0.07849   0.00428
   1    10    17         -0.16911  -0.02608   0.03281  -0.09331   0.00542
   2    10    17         -0.01339  -0.01984  -0.03554   0.06892   0.04677
   3    10    17         -0.00184   0.27581  -0.01491  -0.00083   0.02069
   1    11     1          0.16959  -0.14324  -0.00574  -0.17908  -0.16624
   2    11     1          0.14477  -0.13900   0.24066  -0.09213   0.06586
   3    11     1          0.11491  -0.00196  -0.27178  -0.18916   0.05605
   1    12     1          0.04775   0.21163   0.21829  -0.12098  -0.31457
   2    12     1          0.02113   0.17155  -0.08506  -0.24531  -0.12692
   3    12     1          0.06255   0.07993  -0.29733  -0.21113  -0.00900
   1    13     1         -0.07005   0.33006   0.17251   0.25739  -0.38306
   2    13     1         -0.12010   0.26741  -0.36503   0.06108  -0.22037
   3    13     1         -0.00739   0.15688   0.04242   0.03608   0.01136
   1    14     1          0.11334   0.02396  -0.11131   0.40527  -0.20192
   2    14     1          0.02667   0.00232  -0.20851   0.38932   0.01807
   3    14     1          0.02203   0.10751   0.29381   0.20155   0.09678
   1    15     1          0.28138  -0.22919  -0.08380  -0.19983  -0.04459
   2    15     1         -0.15407  -0.20485   0.15514   0.20029   0.25327
   3    15     1          0.14311   0.19478  -0.00014   0.11964  -0.03093
   1    16     1         -0.06597  -0.21403  -0.18124   0.05824  -0.03231
   2    16     1          0.13646  -0.20456   0.21932   0.02492   0.23614
   3    16     1         -0.05571  -0.08731   0.16554  -0.06819   0.22479
                           6         7         8         9        10
                           A         A         A         A         A
       Frequencies ---   205.9384  255.3287  260.1119  339.9762  372.0696
    Reduced masses ---     5.7318   12.2745   13.2017   10.7624    2.0390
   Force constants ---     0.1432    0.4715    0.5263    0.7329    0.1663
    IR Intensities ---     2.3044    9.5217    1.4205    8.3772   25.6523
 Coord Atom Element:
   1     1     6         -0.08336  -0.03948  -0.07477   0.03153   0.04071
   2     1     6          0.06901  -0.13957   0.06083   0.18191   0.05829
   3     1     6         -0.12866  -0.01525  -0.09275  -0.04136  -0.00641
   1     2     6          0.17422   0.01489  -0.03141  -0.02515  -0.06724
   2     2     6          0.23247  -0.08892   0.02857   0.08362  -0.05776
   3     2     6         -0.06442  -0.01976  -0.08029  -0.04304  -0.03637
   1     3     6          0.11675   0.03308   0.02240  -0.00740  -0.02253
   2     3     6          0.16101  -0.03415   0.04997   0.04862  -0.02942
   3     3     6         -0.01572  -0.00932  -0.01406  -0.00482  -0.01927
   1     4     6         -0.18050   0.07485  -0.02964  -0.09307   0.04797
   2     4     6         -0.08770  -0.00090   0.06722   0.02597   0.06130
   3     4     6         -0.03738   0.00892   0.02227   0.00895   0.00488
   1     5     6         -0.17678   0.09819  -0.17325  -0.17532  -0.11386
   2     5     6         -0.01186   0.01068  -0.00261  -0.00318  -0.12054
   3     5     6         -0.06500   0.00959  -0.03670  -0.02190  -0.01968
   1     6     8          0.11769   0.23957  -0.31480  -0.14869   0.13169
   2     6     8         -0.01237   0.08384  -0.05646  -0.35569   0.08635
   3     6     8          0.15413  -0.21374  -0.07426   0.02468   0.07438
   1     7     6          0.00321   0.12997  -0.18242   0.03010   0.00340
   2     7     6         -0.06070   0.03424  -0.00790  -0.26381   0.02082
   3     7     6          0.09238   0.16488   0.05084  -0.07808  -0.03782
   1     8     6         -0.01090  -0.00098  -0.12992   0.21464  -0.00394
   2     8     6         -0.11334  -0.11237   0.06975   0.01611  -0.00038
   3     8     6          0.03593   0.73252   0.54435   0.14044   0.01668
   1     9    17          0.11892  -0.12109   0.22214  -0.15181   0.00259
   2     9    17         -0.09555  -0.07540   0.18764  -0.09070   0.00557
   3     9    17          0.02535  -0.11577  -0.02206  -0.01048   0.00517
   1    10    17         -0.11531  -0.10881   0.14302   0.25149  -0.00540
   2    10    17          0.02037   0.15033  -0.25399   0.22738   0.00044
   3    10    17         -0.02309  -0.08447  -0.07308   0.01639  -0.00225
   1    11     1         -0.05041   0.03261  -0.09938  -0.09500   0.01592
   2    11     1          0.11907  -0.05660   0.05829   0.08785   0.03319
   3    11     1         -0.14761  -0.02842  -0.11775  -0.06768  -0.00679
   1    12     1          0.32799  -0.02935  -0.01335  -0.00447  -0.12025
   2    12     1          0.35876  -0.12578   0.00677   0.07895  -0.11990
   3    12     1         -0.06147  -0.02339  -0.12594  -0.07172  -0.06102
   1    13     1          0.26371   0.03483   0.10933   0.03344  -0.02638
   2    13     1          0.24028  -0.04369   0.06969   0.04111  -0.04606
   3    13     1          0.02408  -0.00823   0.01065   0.00754  -0.01982
   1    14     1         -0.33420   0.10758  -0.00325  -0.13688   0.11639
   2    14     1         -0.24491   0.03129   0.08834  -0.02056   0.12865
   3    14     1         -0.03495   0.01023   0.07732   0.04219   0.02209
   1    15     1         -0.11823   0.06726  -0.23118  -0.15706  -0.19316
   2    15     1          0.01557   0.18220  -0.13256  -0.29454  -0.48599
   3    15     1         -0.14786  -0.10796   0.13853   0.21134   0.37973
   1    16     1         -0.20832   0.26446  -0.30406  -0.44497  -0.40978
   2    16     1          0.06686   0.02317  -0.05751  -0.05257  -0.28302
   3    16     1          0.02049   0.12014  -0.19067  -0.24451  -0.42889
                          11        12        13        14        15
                           A         A         A         A         A
       Frequencies ---   453.1254  507.2400  537.1286  594.4117  719.9066
    Reduced masses ---     6.0414    6.0512    3.6663    6.9075    1.3245
   Force constants ---     0.7308    0.9173    0.6232    1.4379    0.4044
    IR Intensities ---    13.9822    2.6635   11.6212   73.4173   53.6137
 Coord Atom Element:
   1     1     6         -0.04848  -0.04703   0.08644   0.10233   0.02474
   2     1     6         -0.08117  -0.01787   0.10026   0.10376   0.06279
   3     1     6         -0.02371  -0.03635   0.02337   0.05169   0.02038
   1     2     6         -0.08676   0.12702  -0.14053  -0.02502  -0.02081
   2     2     6         -0.09019   0.13142  -0.15303  -0.01634  -0.01019
   3     2     6          0.00115   0.00760  -0.06389  -0.05113   0.00658
   1     3     6          0.09768  -0.12290   0.14176   0.04242  -0.05135
   2     3     6          0.09712  -0.12322   0.14878   0.08656  -0.05995
   3     3     6          0.03933  -0.05382   0.04289   0.00036   0.00650
   1     4     6         -0.06550   0.06636  -0.08128  -0.07129  -0.00002
   2     4     6         -0.09797   0.10449  -0.08602   0.00744  -0.03651
   3     4     6         -0.02948   0.03058  -0.01748   0.00987  -0.00606
   1     5     6         -0.01065  -0.03047   0.00213   0.05332  -0.07002
   2     5     6         -0.01171   0.00438  -0.00846   0.04226  -0.04805
   3     5     6         -0.02407   0.00216  -0.00154   0.06612  -0.05050
   1     6     8          0.26203   0.12242  -0.00019  -0.10511  -0.01137
   2     6     8         -0.09981  -0.12815   0.03531  -0.20475  -0.01175
   3     6     8          0.11267  -0.15788  -0.12021  -0.00002  -0.00629
   1     7     6         -0.06697  -0.00651  -0.05645   0.43471   0.04680
   2     7     6         -0.24381  -0.20675  -0.03056   0.14055   0.01578
   3     7     6         -0.19767   0.39429   0.28749  -0.08161   0.01354
   1     8     6          0.01969   0.06366  -0.00775   0.21805   0.04107
   2     8     6          0.00580  -0.02711   0.01250  -0.06248   0.00673
   3     8     6          0.03539  -0.12771  -0.08847   0.03812   0.00151
   1     9    17         -0.06804  -0.03922   0.00406  -0.02508  -0.00134
   2     9    17          0.21914   0.14271  -0.01224   0.09425   0.00166
   3     9    17          0.01912  -0.00249  -0.00838   0.00472  -0.00032
   1    10    17          0.00206  -0.03247   0.01692  -0.17203  -0.01636
   2    10    17         -0.03433  -0.03592   0.00730  -0.08771  -0.00862
   3    10    17         -0.00197   0.00131   0.00480  -0.01379  -0.00144
   1    11     1         -0.24049   0.08993   0.08666   0.16852   0.08688
   2    11     1         -0.26153   0.10963   0.13853   0.22152   0.07988
   3    11     1         -0.02676  -0.03379  -0.01269   0.00173   0.05614
   1    12     1         -0.16582   0.30632  -0.40063  -0.21651   0.17213
   2    12     1         -0.16702   0.30611  -0.44123  -0.19161   0.17471
   3    12     1         -0.01554   0.04625  -0.16335  -0.08011   0.04741
   1    13     1          0.25525  -0.27329   0.33012  -0.04005   0.29773
   2    13     1          0.29671  -0.32564   0.32857  -0.05573   0.35251
   3    13     1          0.07730  -0.09018   0.09079  -0.01688   0.09380
   1    14     1         -0.04818   0.06167  -0.12225  -0.29169   0.52230
   2    14     1         -0.07898   0.09673  -0.12593  -0.20959   0.48243
   3    14     1         -0.02780   0.04619  -0.03082  -0.06237   0.14349
   1    15     1          0.07772  -0.18751   0.19243   0.13109   0.06988
   2    15     1          0.25008  -0.09338  -0.16968  -0.30180   0.06402
   3    15     1         -0.33862   0.24843  -0.06353   0.27339  -0.28914
   1    16     1          0.16887  -0.04946  -0.14809  -0.22766  -0.00198
   2    16     1          0.15598  -0.16174   0.07755  -0.03296   0.10053
   3    16     1          0.31836  -0.25111   0.04047  -0.19868   0.20499
                          16        17        18        19        20
                           A         A         A         A         A
       Frequencies ---   816.9942  817.7713  853.4174  877.8145  922.7674
    Reduced masses ---     3.5976    4.6075    1.3795    7.7046    1.7128
   Force constants ---     1.4148    1.8154    0.5920    3.4979    0.8593
    IR Intensities ---    11.9585    1.4180    2.9578   45.7179   29.9374
 Coord Atom Element:
   1     1     6         -0.00115   0.20561  -0.00876   0.07786  -0.10226
   2     1     6          0.03238  -0.13705   0.01595  -0.05607  -0.00671
   3     1     6         -0.12280  -0.17859  -0.01731  -0.02783  -0.01822
   1     2     6         -0.11776  -0.06180  -0.09006  -0.00714  -0.03271
   2     2     6          0.21319   0.11155  -0.03742  -0.02026  -0.03177
   3     2     6         -0.06980  -0.19931  -0.03867   0.01256  -0.00515
   1     3     6         -0.07387  -0.11746  -0.01142   0.02935  -0.04585
   2     3     6         -0.00605   0.05088   0.03208   0.01819  -0.03723
   3     3     6          0.27071  -0.01018   0.07659  -0.04425   0.01604
   1     4     6          0.14311  -0.17307   0.08028  -0.00960   0.00482
   2     4     6         -0.15782   0.09214   0.02446   0.08069  -0.07313
   3     4     6          0.04883   0.09986   0.03329   0.02143  -0.04053
   1     5     6          0.08790   0.11943  -0.01193  -0.10045   0.12825
   2     5     6         -0.02793  -0.15012  -0.06819  -0.04130   0.09955
   3     5     6         -0.12957   0.27215  -0.03948  -0.00701   0.06042
   1     6     8         -0.00883   0.00392   0.00525   0.03221   0.01474
   2     6     8          0.00531   0.00342  -0.00874   0.02135  -0.00323
   3     6     8         -0.00153   0.00466   0.00194  -0.00185   0.00238
   1     7     6          0.02348  -0.03031  -0.00444  -0.07967  -0.02625
   2     7     6          0.01186  -0.00851  -0.00883  -0.08029  -0.01964
   3     7     6          0.02664  -0.01041  -0.01901   0.02565  -0.01427
   1     8     6          0.03306  -0.03304  -0.00584   0.34677   0.02312
   2     8     6          0.01917  -0.01096  -0.00080   0.60449   0.08542
   3     8     6          0.00309  -0.00233   0.00190   0.05211   0.01014
   1     9    17          0.00003   0.00002  -0.00051   0.00539   0.00218
   2     9    17         -0.00277   0.00028   0.00062  -0.10001  -0.01332
   3     9    17         -0.00051  -0.00059  -0.00013  -0.00922  -0.00069
   1    10    17         -0.00982   0.00983   0.00117  -0.09021  -0.00710
   2    10    17         -0.00544   0.00531   0.00029  -0.07243  -0.00746
   3    10    17         -0.00150   0.00044  -0.00008  -0.00580  -0.00054
   1    11     1         -0.28283   0.17446   0.55536  -0.09854  -0.05243
   2    11     1         -0.51511  -0.10537   0.49884  -0.30239   0.18838
   3    11     1          0.13903  -0.24101   0.02673   0.04063  -0.15042
   1    12     1         -0.22473  -0.11518   0.23317  -0.08721   0.31918
   2    12     1         -0.09994   0.26907   0.30062  -0.00763   0.26524
   3    12     1         -0.35621   0.04725   0.06375   0.10853   0.01528
   1    13     1         -0.17977   0.33465  -0.05430  -0.12280   0.31951
   2    13     1         -0.13506  -0.03095  -0.04487  -0.23201   0.49276
   3    13     1          0.24509   0.12928   0.06757  -0.07944   0.10221
   1    14     1          0.17526   0.06800  -0.22883  -0.21125  -0.00043
   2    14     1         -0.10241   0.37161  -0.27459  -0.12345  -0.07350
   3    14     1         -0.15030  -0.17396  -0.12931   0.03777  -0.13362
   1    15     1          0.00459   0.13736  -0.15406  -0.20190   0.07862
   2    15     1         -0.04857  -0.04722   0.18681   0.25977  -0.23241
   3    15     1         -0.02093   0.16421  -0.10306  -0.14965   0.38399
   1    16     1         -0.14064   0.07641   0.16361   0.09249  -0.12196
   2    16     1          0.09171  -0.08544  -0.05049   0.03201  -0.06465
   3    16     1         -0.08521   0.34847   0.08287   0.20376  -0.31295
                          21        22        23        24        25
                           A         A         A         A         A
       Frequencies ---   951.9402  970.5663  978.9712 1003.1809 1073.7809
    Reduced masses ---     1.9640    1.6018    1.3884    1.5203    2.0368
   Force constants ---     1.0486    0.8890    0.7840    0.9015    1.3837
    IR Intensities ---     8.0299   14.6272    4.5884    4.2645    6.5442
 Coord Atom Element:
   1     1     6         -0.11687   0.09272   0.00312   0.05355  -0.09159
   2     1     6          0.10018   0.01525  -0.00788  -0.11958   0.01787
   3     1     6          0.00059  -0.02332   0.01032  -0.03541   0.05255
   1     2     6          0.06971  -0.04911   0.07220   0.04980  -0.11596
   2     2     6          0.01586  -0.03138   0.05942   0.02126   0.15396
   3     2     6         -0.00311   0.01415   0.01279   0.03570  -0.00403
   1     3     6         -0.01838  -0.01217  -0.09475  -0.02321   0.11939
   2     3     6          0.03409  -0.02534  -0.08283   0.03935  -0.08126
   3     3     6          0.00016  -0.04521  -0.01831   0.01970  -0.11718
   1     4     6          0.08217   0.11940   0.03728  -0.00096   0.04979
   2     4     6         -0.03845  -0.01762   0.07251  -0.08658  -0.06063
   3     4     6         -0.09366  -0.06375   0.03360  -0.03317  -0.03481
   1     5     6         -0.00754  -0.08385  -0.01393  -0.04094   0.01226
   2     5     6         -0.11016   0.01552  -0.02554   0.10126  -0.00761
   3     5     6          0.16165   0.08142  -0.02509   0.00618   0.05024
   1     6     8          0.00214  -0.01560  -0.00062   0.00814   0.00449
   2     6     8         -0.00786   0.01406  -0.00160  -0.00910  -0.00496
   3     6     8          0.00073  -0.00601   0.00183   0.00144  -0.00038
   1     7     6         -0.00783   0.02797  -0.00176  -0.01310  -0.00168
   2     7     6         -0.01031   0.01818  -0.00113  -0.00569  -0.00686
   3     7     6         -0.00842   0.02958  -0.00939  -0.01426  -0.00393
   1     8     6          0.01342   0.00347   0.00121  -0.00940  -0.00199
   2     8     6          0.02710  -0.05304  -0.00201   0.01538   0.01175
   3     8     6          0.00382  -0.00562  -0.00047   0.00104   0.00209
   1     9    17          0.00148  -0.00094  -0.00049  -0.00079   0.00108
   2     9    17         -0.00394   0.00762   0.00028  -0.00194  -0.00143
   3     9    17          0.00044   0.00061  -0.00006  -0.00078  -0.00053
   1    10    17         -0.00221   0.00072   0.00037   0.00098  -0.00046
   2    10    17         -0.00242   0.00268   0.00029  -0.00018  -0.00080
   3    10    17         -0.00012  -0.00034   0.00027   0.00029  -0.00014
   1    11     1         -0.13096  -0.31479   0.12732   0.54824   0.19102
   2    11     1          0.36666  -0.32987   0.04738   0.21658   0.13217
   3    11     1         -0.24277  -0.06175   0.06678   0.07360   0.21061
   1    12     1         -0.09198   0.07787  -0.32522  -0.26106  -0.49249
   2    12     1         -0.35006   0.25419  -0.42279  -0.22371   0.12970
   3    12     1         -0.30105   0.24645  -0.19478   0.04370   0.30187
   1    13     1         -0.31575   0.04254   0.42407  -0.20704   0.50735
   2    13     1          0.00351   0.25298   0.47828   0.11170  -0.41708
   3    13     1         -0.08855  -0.04454   0.11465  -0.03781  -0.00403
   1    14     1          0.20841  -0.15879  -0.30946   0.24805   0.10275
   2    14     1          0.11560  -0.28755  -0.27476   0.16822  -0.02625
   3    14     1         -0.43462  -0.27786  -0.01361  -0.05864   0.01552
   1    15     1          0.06078  -0.31477  -0.05384  -0.28997  -0.03708
   2    15     1          0.01891   0.26201   0.07357   0.14473   0.00500
   3    15     1         -0.02145   0.11883  -0.06283   0.22234   0.09098
   1    16     1          0.08606  -0.24841   0.11113  -0.36149  -0.00963
   2    16     1         -0.02690   0.20166  -0.04541   0.21260   0.00849
   3    16     1          0.33919   0.25695   0.01249  -0.00814   0.07007
                          26        27        28        29        30
                           A         A         A         A         A
       Frequencies ---  1117.1390 1140.6524 1154.3375 1296.8065 1303.4963
    Reduced masses ---     1.1734    1.2770    1.1582    9.6899    1.4750
   Force constants ---     0.8628    0.9789    0.9093    9.6011    1.4766
    IR Intensities ---     1.7194    1.3035    1.4263   50.0457    3.2744
 Coord Atom Element:
   1     1     6         -0.01617  -0.00644  -0.02709  -0.07194   0.01695
   2     1     6          0.01041   0.00384  -0.05468  -0.05968   0.00087
   3     1     6          0.08185   0.00847   0.00622  -0.06016  -0.02982
   1     2     6          0.00146  -0.04595   0.00034  -0.02935   0.01631
   2     2     6         -0.00968   0.04794   0.00464   0.00680  -0.00331
   3     2     6         -0.06505  -0.05361  -0.01171   0.04588  -0.05767
   1     3     6          0.01640   0.00973  -0.01003   0.02617   0.02186
   2     3     6         -0.00038   0.02238  -0.00519  -0.00734  -0.02814
   3     3     6         -0.01467  -0.08115  -0.00968  -0.02110   0.03350
   1     4     6         -0.03454   0.04487   0.05831  -0.01639   0.02458
   2     4     6          0.01445  -0.05301   0.05328   0.02159  -0.03557
   3     4     6         -0.02425   0.01897   0.01092  -0.00483   0.01331
   1     5     6          0.00147   0.01150  -0.03245   0.02311  -0.13574
   2     5     6          0.00918  -0.02674   0.02042   0.01132   0.10190
   3     5     6          0.02640   0.06018   0.01246   0.02721   0.06661
   1     6     8          0.00523   0.00381   0.01177  -0.18001  -0.00141
   2     6     8         -0.00786  -0.00560  -0.01291   0.34310   0.00337
   3     6     8         -0.00063   0.00012   0.00042   0.01649   0.00063
   1     7     6         -0.00280  -0.00223  -0.00173  -0.20755  -0.00107
   2     7     6         -0.00059  -0.00102   0.00086  -0.16384  -0.00137
   3     7     6         -0.00088  -0.00227  -0.00459  -0.04329  -0.00160
   1     8     6         -0.01491  -0.01023  -0.02540   0.59284   0.00257
   2     8     6          0.00705   0.00762   0.02097  -0.36562  -0.00274
   3     8     6          0.00022   0.00049   0.00074   0.01793  -0.00007
   1     9    17         -0.00052   0.00026   0.00057  -0.01748  -0.00031
   2     9    17         -0.00072  -0.00097  -0.00261   0.04448   0.00030
   3     9    17         -0.00024  -0.00017  -0.00035   0.00358  -0.00013
   1    10    17          0.00130   0.00080   0.00129  -0.02266  -0.00013
   2    10    17          0.00053   0.00020   0.00017  -0.00672  -0.00001
   3    10    17          0.00007   0.00000   0.00010   0.00034   0.00005
   1    11     1          0.19258   0.09969   0.13106   0.29186   0.14840
   2    11     1         -0.30897  -0.08248  -0.02494   0.02237  -0.16544
   3    11     1          0.56193   0.18448   0.11398   0.16786   0.22819
   1    12     1          0.35832   0.05891   0.09001   0.14950  -0.16577
   2    12     1         -0.05447   0.03958   0.05131  -0.05760   0.07980
   3    12     1         -0.47484  -0.18213  -0.04376  -0.20897   0.21998
   1    13     1          0.12633  -0.39211  -0.02482  -0.02380  -0.16356
   2    13     1         -0.09186   0.39725  -0.04148  -0.00225   0.17647
   3    13     1          0.02015  -0.22621  -0.01350  -0.03985  -0.02835
   1    14     1          0.00566   0.01263  -0.10239  -0.02660   0.05096
   2    14     1          0.08502  -0.16928  -0.10391   0.00868   0.02108
   3    14     1         -0.28324   0.68969  -0.07228   0.02079  -0.33892
   1    15     1         -0.18538   0.02240   0.56594   0.17121   0.30224
   2    15     1          0.12609  -0.02240  -0.39990  -0.17953  -0.19688
   3    15     1          0.12678   0.05366  -0.25712   0.03235  -0.14118
   1    16     1         -0.02310   0.08651  -0.45815  -0.08566   0.51489
   2    16     1          0.01291  -0.05908   0.32858   0.08242  -0.35535
   3    16     1          0.02213   0.06688   0.22317   0.08655  -0.23613
                          31        32        33        34        35
                           A         A         A         A         A
       Frequencies ---  1338.5740 1431.7678 1447.1131 1484.4842 1601.2620
    Reduced masses ---     1.8660    1.5430    1.5474    3.3000    4.5841
   Force constants ---     1.9700    1.8636    1.9092    4.2846    6.9252
    IR Intensities ---     3.0398   56.3649    2.1141   15.5450   19.8248
 Coord Atom Element:
   1     1     6         -0.09798  -0.03300   0.04086   0.00462   0.00958
   2     1     6          0.10072   0.03134  -0.05776  -0.06150   0.04034
   3     1     6         -0.08341   0.01267   0.06940   0.28373  -0.11868
   1     2     6          0.05531   0.09122  -0.06422   0.08201  -0.04481
   2     2     6         -0.05396  -0.06471   0.06466   0.01072  -0.02980
   3     2     6         -0.00954  -0.08054   0.00179  -0.26320   0.19404
   1     3     6          0.05151  -0.10800   0.07929  -0.06912  -0.13678
   2     3     6         -0.04262   0.09604  -0.06329   0.07392   0.20312
   3     3     6         -0.02919   0.01147  -0.03479  -0.04738  -0.27411
   1     4     6         -0.05601   0.03791  -0.02844   0.05077   0.09407
   2     4     6          0.02808  -0.03102   0.00435  -0.07704  -0.17157
   3     4     6          0.12514  -0.03034   0.08400   0.14090   0.30689
   1     5     6          0.11183  -0.01360  -0.02455   0.01863  -0.01601
   2     5     6         -0.07455   0.01397   0.02281  -0.00156   0.02102
   3     5     6         -0.04773  -0.05044  -0.10180  -0.03386  -0.01683
   1     6     8          0.00155  -0.00193   0.00025  -0.00531   0.00168
   2     6     8         -0.00523   0.00420   0.00227   0.01955  -0.00922
   3     6     8         -0.00080   0.00153   0.00035   0.00179   0.00004
   1     7     6          0.00041  -0.00773   0.00517  -0.04795   0.00899
   2     7     6          0.00172  -0.00468  -0.00271  -0.01741   0.01220
   3     7     6          0.00176  -0.00391   0.00034  -0.01246  -0.00154
   1     8     6         -0.00183   0.00794  -0.00572   0.04654  -0.00911
   2     8     6          0.00334  -0.00176   0.00285  -0.01559   0.00274
   3     8     6         -0.00027   0.00063  -0.00002   0.00345  -0.00187
   1     9    17          0.00025  -0.00023   0.00017  -0.00080   0.00016
   2     9    17         -0.00044   0.00010  -0.00037   0.00160  -0.00034
   3     9    17         -0.00002   0.00002  -0.00013   0.00011  -0.00009
   1    10    17          0.00016   0.00013   0.00012  -0.00036   0.00024
   2    10    17          0.00000  -0.00008   0.00004  -0.00069   0.00026
   3    10    17         -0.00003   0.00008  -0.00000   0.00037   0.00023
   1    11     1          0.11841   0.00443  -0.11904  -0.33269   0.05028
   2    11     1         -0.19214  -0.09676   0.16670   0.21002  -0.08755
   3    11     1          0.37681   0.16570  -0.27353  -0.20623   0.00015
   1    12     1         -0.25230  -0.11511   0.07117  -0.21892   0.27964
   2    12     1          0.07618   0.04253   0.01500   0.18302  -0.17446
   3    12     1          0.45619   0.27002  -0.21415   0.19837  -0.26103
   1    13     1         -0.32090   0.19576  -0.19934  -0.06647   0.35348
   2    13     1          0.34150  -0.20443   0.21823   0.06010  -0.28795
   3    13     1         -0.15543   0.12160  -0.13822  -0.05689  -0.16272
   1    14     1         -0.02547   0.02477  -0.00180   0.09373   0.18156
   2    14     1          0.11379  -0.07667   0.08366  -0.01465  -0.08312
   3    14     1         -0.31411   0.21863  -0.33601  -0.22588  -0.37514
   1    15     1         -0.09600  -0.09752  -0.11306  -0.02367   0.09826
   2    15     1          0.05115  -0.38815  -0.36195   0.31406  -0.02453
   3    15     1          0.06738   0.43078   0.35447  -0.28085  -0.09696
   1    16     1         -0.21559   0.32247   0.31944  -0.34554   0.11625
   2    16     1          0.15125   0.18958   0.19999  -0.04115  -0.12273
   3    16     1          0.09852   0.43778   0.38097  -0.32108  -0.15667
                          36        37        38        39        40
                           A         A         A         A         A
       Frequencies ---  1949.6115 3030.2459 3127.9391 3233.9503 3247.0041
    Reduced masses ---    12.6238    1.0722    1.0886    1.0874    1.0907
   Force constants ---    28.2706    5.8005    6.2756    6.7004    6.7751
    IR Intensities ---   168.6030    3.6698    0.4973    2.2249    4.2036
 Coord Atom Element:
   1     1     6          0.01580  -0.00112   0.00014  -0.00434  -0.02723
   2     1     6          0.00944  -0.00017  -0.00060   0.00488   0.02878
   3     1     6         -0.00782   0.00063  -0.00067   0.00512   0.03019
   1     2     6         -0.02042  -0.00039  -0.00010   0.01040   0.03059
   2     2     6          0.00062   0.00044  -0.00023  -0.01395  -0.03876
   3     2     6          0.01833   0.00057  -0.00033   0.01267   0.03084
   1     3     6          0.01516   0.00067  -0.00028   0.01757  -0.00006
   2     3     6         -0.01648  -0.00070  -0.00004  -0.00272   0.00229
   3     3     6          0.00553   0.00007  -0.00020  -0.05669  -0.00875
   1     4     6          0.00613   0.00014  -0.00177  -0.04030   0.02835
   2     4     6          0.00726  -0.00116   0.00104   0.03899  -0.02782
   3     4     6         -0.01189  -0.00050  -0.00032   0.00518  -0.00164
   1     5     6         -0.00287  -0.04546  -0.03265   0.00084   0.00035
   2     5     6          0.00032  -0.02894  -0.07052   0.00049  -0.00109
   3     5     6         -0.00284  -0.05425   0.03612  -0.00186   0.00211
   1     6     8          0.19898  -0.00003  -0.00073  -0.00002  -0.00002
   2     6     8         -0.37754   0.00020   0.00052   0.00004   0.00002
   3     6     8         -0.02781   0.00003  -0.00019  -0.00001  -0.00002
   1     7     6         -0.54269   0.00042   0.00051   0.00010   0.00018
   2     7     6          0.64527  -0.00024  -0.00126  -0.00011   0.00014
   3     7     6          0.01777   0.00016  -0.00023   0.00004   0.00009
   1     8     6          0.27098  -0.00003  -0.00007  -0.00007  -0.00014
   2     8     6         -0.14361   0.00003   0.00012   0.00003   0.00005
   3     8     6          0.00387  -0.00001  -0.00003  -0.00007  -0.00021
   1     9    17          0.00078  -0.00001  -0.00000   0.00001  -0.00002
   2     9    17          0.00414   0.00001   0.00000  -0.00000  -0.00002
   3     9    17          0.00167  -0.00000   0.00000  -0.00002  -0.00007
   1    10    17         -0.00487  -0.00001   0.00001   0.00001   0.00000
   2    10    17         -0.00304  -0.00000   0.00001   0.00000   0.00000
   3    10    17          0.00153  -0.00000   0.00000   0.00001   0.00002
   1    11     1         -0.02540   0.00869  -0.00476   0.05502   0.31007
   2    11     1         -0.02914  -0.00623   0.00823  -0.05924  -0.33109
   3    11     1         -0.00946  -0.01385   0.01003  -0.06381  -0.35944
   1    12     1          0.01110   0.00226  -0.00213  -0.13283  -0.35414
   2    12     1          0.00543  -0.00382   0.00253   0.16921   0.44730
   3    12     1         -0.00871   0.00237  -0.00249  -0.13965  -0.36136
   1    13     1          0.00303  -0.00186   0.00016  -0.19822  -0.02125
   2    13     1          0.00512  -0.00012  -0.00034   0.02756  -0.00002
   3    13     1          0.00407   0.00390  -0.00279   0.66557   0.08136
   1    14     1         -0.00338  -0.00967   0.02068   0.46922  -0.31404
   2    14     1         -0.00227   0.01193  -0.01720  -0.45868   0.30707
   3    14     1          0.00126  -0.00255   0.00116  -0.05009   0.03152
   1    15     1          0.00845   0.61550   0.10002   0.00087  -0.00685
   2    15     1         -0.03482   0.51028   0.07298   0.00282  -0.00397
   3    15     1          0.03481   0.56674   0.10712   0.00269  -0.00596
   1    16     1          0.06111  -0.06865   0.30479  -0.00620   0.00540
   2    16     1          0.02212  -0.14948   0.77647  -0.01115   0.01449
   3    16     1          0.03521   0.07802  -0.51875   0.00980  -0.01057
                          41        42
                           A         A
       Frequencies ---  3253.6215 3263.0014
    Reduced masses ---     1.0985    1.1023
   Force constants ---     6.8513    6.9149
    IR Intensities ---     5.5542    1.1563
 Coord Atom Element:
   1     1     6          0.02584   0.02842
   2     1     6         -0.02668  -0.02781
   3     1     6         -0.03150  -0.03592
   1     2     6         -0.00066   0.03201
   2     2     6         -0.00137  -0.04199
   3     2     6          0.00473   0.03493
   1     3     6          0.01320  -0.01082
   2     3     6          0.00083   0.00180
   3     3     6         -0.05443   0.03361
   1     4     6          0.03661  -0.01506
   2     4     6         -0.03696   0.01509
   3     4     6          0.00068  -0.00051
   1     5     6         -0.00174  -0.00117
   2     5     6          0.00052   0.00149
   3     5     6          0.00162  -0.00262
   1     6     8         -0.00001  -0.00003
   2     6     8          0.00012  -0.00006
   3     6     8          0.00000  -0.00003
   1     7     6          0.00005   0.00045
   2     7     6         -0.00011   0.00026
   3     7     6         -0.00000   0.00007
   1     8     6         -0.00003  -0.00011
   2     8     6         -0.00012  -0.00020
   3     8     6          0.00008  -0.00003
   1     9    17          0.00008   0.00012
   2     9    17          0.00004   0.00006
   3     9    17          0.00004   0.00001
   1    10    17          0.00001  -0.00001
   2    10    17          0.00001   0.00001
   3    10    17         -0.00001  -0.00000
   1    11     1         -0.29812  -0.31040
   2    11     1          0.31844   0.32958
   3    11     1          0.34858   0.36447
   1    12     1         -0.01351  -0.35846
   2    12     1          0.02011   0.45415
   3    12     1         -0.02081  -0.36865
   1    13     1         -0.16936   0.10678
   2    13     1          0.02188  -0.01547
   3    13     1          0.57769  -0.35380
   1    14     1         -0.40048   0.15208
   2    14     1          0.39250  -0.14907
   3    14     1          0.03912  -0.01423
   1    15     1          0.00198   0.00945
   2    15     1         -0.00120   0.00552
   3    15     1         -0.00061   0.00915
   1    16     1          0.00439  -0.00431
   2    16     1          0.00515  -0.01473
   3    16     1         -0.00640   0.01151
 Harmonic frequencies (cm**-1), IR intensities (KM/Mole), Raman scattering
 activities (A**4/AMU), depolarization ratios for plane and unpolarized
 incident light, reduced masses (AMU), force constants (mDyne/A),
 and normal coordinates:
                      1                      2                      3
                      A                      A                      A
 Frequencies --   -201.1851                68.8471                95.3054
 Red. masses --      9.9766                 8.5699                 4.9606
 Frc consts  --      0.2379                 0.0239                 0.0265
 IR Inten    --     62.6373                 0.8080                 0.7667
  Atom  AN      X      Y      Z        X      Y      Z        X      Y      Z
     1   6     0.43   0.40   0.11    -0.09  -0.09   0.00     0.01   0.12  -0.15
     2   6     0.09   0.08   0.09     0.12   0.09   0.07     0.13  -0.05  -0.17
     3   6     0.04  -0.05   0.02     0.18   0.14   0.12     0.10  -0.20   0.01
     4   6     0.12   0.04   0.01     0.02   0.00   0.09    -0.05  -0.13   0.14
     5   6     0.17   0.11   0.03    -0.14  -0.14   0.05    -0.09   0.11   0.05
     6   8     0.00  -0.06  -0.08     0.01   0.02  -0.35     0.05   0.09  -0.14
     7   6    -0.33  -0.30  -0.20     0.01   0.02  -0.22     0.01   0.07  -0.09
     8   6    -0.14  -0.05   0.09    -0.02  -0.00  -0.05    -0.01   0.03  -0.00
     9  17     0.02  -0.04  -0.02    -0.00   0.01  -0.15    -0.09   0.01   0.15
    10  17    -0.17  -0.01  -0.00    -0.03  -0.02   0.28     0.03  -0.04  -0.01
    11   1     0.17   0.14   0.11    -0.14  -0.14  -0.00    -0.01   0.24  -0.27
    12   1     0.05   0.02   0.06     0.21   0.17   0.08     0.22  -0.09  -0.30
    13   1    -0.07  -0.12  -0.01     0.33   0.27   0.16     0.17  -0.37   0.04
    14   1     0.11   0.03   0.02     0.02   0.00   0.11    -0.11  -0.21   0.29
    15   1     0.28  -0.15   0.14    -0.23  -0.20   0.19    -0.08   0.16  -0.00
    16   1    -0.07   0.14  -0.06    -0.21  -0.20  -0.09    -0.18   0.22   0.17
                      4                      5                      6
                      A                      A                      A
 Frequencies --    129.3912               165.9456               205.9384
 Red. masses --      4.6681                 7.2096                 5.7318
 Frc consts  --      0.0460                 0.1170                 0.1432
 IR Inten    --      2.6224                 7.1627                 2.3044
  Atom  AN      X      Y      Z        X      Y      Z        X      Y      Z
     1   6    -0.12  -0.10  -0.13    -0.12   0.10   0.07    -0.08   0.07  -0.13
     2   6    -0.05  -0.13  -0.13    -0.25  -0.05   0.03     0.17   0.23  -0.06
     3   6     0.15   0.05   0.00    -0.28  -0.09   0.04     0.12   0.16  -0.02
     4   6     0.23   0.22   0.09    -0.19   0.03   0.08    -0.18  -0.09  -0.04
     5   6    -0.01   0.10   0.00    -0.09   0.17   0.09    -0.18  -0.01  -0.06
     6   8    -0.08  -0.12   0.01     0.17  -0.02  -0.20     0.12  -0.01   0.15
     7   6    -0.02  -0.08  -0.02     0.07  -0.09  -0.12     0.00  -0.06   0.09
     8   6    -0.01  -0.04  -0.05     0.08  -0.07  -0.02    -0.01  -0.11   0.04
     9  17     0.07  -0.03   0.08     0.22  -0.04   0.00     0.12  -0.10   0.03
    10  17    -0.09   0.07  -0.00     0.01   0.05   0.02    -0.12   0.02  -0.02
    11   1    -0.18  -0.09  -0.19    -0.17   0.07   0.06    -0.05   0.12  -0.15
    12   1    -0.12  -0.25  -0.21    -0.31  -0.13  -0.01     0.33   0.36  -0.06
    13   1     0.26   0.06   0.04    -0.38  -0.22   0.01     0.26   0.24   0.02
    14   1     0.41   0.39   0.20    -0.20   0.02   0.10    -0.33  -0.24  -0.03
    15   1    -0.20   0.20   0.12    -0.04   0.25  -0.03    -0.12   0.02  -0.15
    16   1     0.06   0.02  -0.07    -0.03   0.24   0.22    -0.21   0.07   0.02
                      7                      8                      9
                      A                      A                      A
 Frequencies --    255.3287               260.1119               339.9762
 Red. masses --     12.2745                13.2017                10.7624
 Frc consts  --      0.4715                 0.5263                 0.7329
 IR Inten    --      9.5217                 1.4205                 8.3772
  Atom  AN      X      Y      Z        X      Y      Z        X      Y      Z
     1   6    -0.04  -0.14  -0.02    -0.07   0.06  -0.09     0.03   0.18  -0.04
     2   6     0.01  -0.09  -0.02    -0.03   0.03  -0.08    -0.03   0.08  -0.04
     3   6     0.03  -0.03  -0.01     0.02   0.05  -0.01    -0.01   0.05  -0.00
     4   6     0.07  -0.00   0.01    -0.03   0.07   0.02    -0.09   0.03   0.01
     5   6     0.10   0.01   0.01    -0.17  -0.00  -0.04    -0.18  -0.00  -0.02
     6   8     0.24   0.08  -0.21    -0.31  -0.06  -0.07    -0.15  -0.36   0.02
     7   6     0.13   0.03   0.16    -0.18  -0.01   0.05     0.03  -0.26  -0.08
     8   6    -0.00  -0.11   0.73    -0.13   0.07   0.54     0.21   0.02   0.14
     9  17    -0.12  -0.08  -0.12     0.22   0.19  -0.02    -0.15  -0.09  -0.01
    10  17    -0.11   0.15  -0.08     0.14  -0.25  -0.07     0.25   0.23   0.02
    11   1     0.03  -0.06  -0.03    -0.10   0.06  -0.12    -0.09   0.09  -0.07
    12   1    -0.03  -0.13  -0.02    -0.01   0.01  -0.13    -0.00   0.08  -0.07
    13   1     0.03  -0.04  -0.01     0.11   0.07   0.01     0.03   0.04   0.01
    14   1     0.11   0.03   0.01    -0.00   0.09   0.08    -0.14  -0.02   0.04
    15   1     0.07   0.18  -0.11    -0.23  -0.13   0.14    -0.16  -0.29   0.21
    16   1     0.26   0.02   0.12    -0.30  -0.06  -0.19    -0.44  -0.05  -0.24
                     10                     11                     12
                      A                      A                      A
 Frequencies --    372.0696               453.1254               507.2400
 Red. masses --      2.0390                 6.0414                 6.0512
 Frc consts  --      0.1663                 0.7308                 0.9173
 IR Inten    --     25.6523                13.9822                 2.6635
  Atom  AN      X      Y      Z        X      Y      Z        X      Y      Z
     1   6     0.04   0.06  -0.01    -0.05  -0.08  -0.02    -0.05  -0.02  -0.04
     2   6    -0.07  -0.06  -0.04    -0.09  -0.09   0.00     0.13   0.13   0.01
     3   6    -0.02  -0.03  -0.02     0.10   0.10   0.04    -0.12  -0.12  -0.05
     4   6     0.05   0.06   0.00    -0.07  -0.10  -0.03     0.07   0.10   0.03
     5   6    -0.11  -0.12  -0.02    -0.01  -0.01  -0.02    -0.03   0.00   0.00
     6   8     0.13   0.09   0.07     0.26  -0.10   0.11     0.12  -0.13  -0.16
     7   6     0.00   0.02  -0.04    -0.07  -0.24  -0.20    -0.01  -0.21   0.39
     8   6    -0.00  -0.00   0.02     0.02   0.01   0.04     0.06  -0.03  -0.13
     9  17     0.00   0.01   0.01    -0.07   0.22   0.02    -0.04   0.14  -0.00
    10  17    -0.01   0.00  -0.00     0.00  -0.03  -0.00    -0.03  -0.04   0.00
    11   1     0.02   0.03  -0.01    -0.24  -0.26  -0.03     0.09   0.11  -0.03
    12   1    -0.12  -0.12  -0.06    -0.17  -0.17  -0.02     0.31   0.31   0.05
    13   1    -0.03  -0.05  -0.02     0.26   0.30   0.08    -0.27  -0.33  -0.09
    14   1     0.12   0.13   0.02    -0.05  -0.08  -0.03     0.06   0.10   0.05
    15   1    -0.19  -0.49   0.38     0.08   0.25  -0.34    -0.19  -0.09   0.25
    16   1    -0.41  -0.28  -0.43     0.17   0.16   0.32    -0.05  -0.16  -0.25
                     13                     14                     15
                      A                      A                      A
 Frequencies --    537.1286               594.4117               719.9066
 Red. masses --      3.6663                 6.9075                 1.3245
 Frc consts  --      0.6232                 1.4379                 0.4044
 IR Inten    --     11.6212                73.4173                53.6137
  Atom  AN      X      Y      Z        X      Y      Z        X      Y      Z
     1   6     0.09   0.10   0.02     0.10   0.10   0.05     0.02   0.06   0.02
     2   6    -0.14  -0.15  -0.06    -0.03  -0.02  -0.05    -0.02  -0.01   0.01
     3   6     0.14   0.15   0.04     0.04   0.09   0.00    -0.05  -0.06   0.01
     4   6    -0.08  -0.09  -0.02    -0.07   0.01   0.01    -0.00  -0.04  -0.01
     5   6     0.00  -0.01  -0.00     0.05   0.04   0.07    -0.07  -0.05  -0.05
     6   8    -0.00   0.04  -0.12    -0.11  -0.20  -0.00    -0.01  -0.01  -0.01
     7   6    -0.06  -0.03   0.29     0.43   0.14  -0.08     0.05   0.02   0.01
     8   6    -0.01   0.01  -0.09     0.22  -0.06   0.04     0.04   0.01   0.00
     9  17     0.00  -0.01  -0.01    -0.03   0.09   0.00    -0.00   0.00  -0.00
    10  17     0.02   0.01   0.00    -0.17  -0.09  -0.01    -0.02  -0.01  -0.00
    11   1     0.09   0.14  -0.01     0.17   0.22   0.00     0.09   0.08   0.06
    12   1    -0.40  -0.44  -0.16    -0.22  -0.19  -0.08     0.17   0.17   0.05
    13   1     0.33   0.33   0.09    -0.04  -0.06  -0.02     0.30   0.35   0.09
    14   1    -0.12  -0.13  -0.03    -0.29  -0.21  -0.06     0.52   0.48   0.14
    15   1     0.19  -0.17  -0.06     0.13  -0.30   0.27     0.07   0.06  -0.29
    16   1    -0.15   0.08   0.04    -0.23  -0.03  -0.20    -0.00   0.10   0.20
                     16                     17                     18
                      A                      A                      A
 Frequencies --    816.9942               817.7713               853.4174
 Red. masses --      3.5976                 4.6075                 1.3795
 Frc consts  --      1.4148                 1.8154                 0.5920
 IR Inten    --     11.9585                 1.4180                 2.9578
  Atom  AN      X      Y      Z        X      Y      Z        X      Y      Z
     1   6    -0.00   0.03  -0.12     0.21  -0.14  -0.18    -0.01   0.02  -0.02
     2   6    -0.12   0.21  -0.07    -0.06   0.11  -0.20    -0.09  -0.04  -0.04
     3   6    -0.07  -0.01   0.27    -0.12   0.05  -0.01    -0.01   0.03   0.08
     4   6     0.14  -0.16   0.05    -0.17   0.09   0.10     0.08   0.02   0.03
     5   6     0.09  -0.03  -0.13     0.12  -0.15   0.27    -0.01  -0.07  -0.04
     6   8    -0.01   0.01  -0.00     0.00   0.00   0.00     0.01  -0.01   0.00
     7   6     0.02   0.01   0.03    -0.03  -0.01  -0.01    -0.00  -0.01  -0.02
     8   6     0.03   0.02   0.00    -0.03  -0.01  -0.00    -0.01  -0.00   0.00
     9  17     0.00  -0.00  -0.00     0.00   0.00  -0.00    -0.00   0.00  -0.00
    10  17    -0.01  -0.01  -0.00     0.01   0.01   0.00     0.00   0.00  -0.00
    11   1    -0.28  -0.52   0.14     0.17  -0.11  -0.24     0.56   0.50   0.03
    12   1    -0.22  -0.10  -0.36    -0.12   0.27   0.05     0.23   0.30   0.06
    13   1    -0.18  -0.14   0.25     0.33  -0.03   0.13    -0.05  -0.04   0.07
    14   1     0.18  -0.10  -0.15     0.07   0.37  -0.17    -0.23  -0.27  -0.13
    15   1     0.00  -0.05  -0.02     0.14  -0.05   0.16    -0.15   0.19  -0.10
    16   1    -0.14   0.09  -0.09     0.08  -0.09   0.35     0.16  -0.05   0.08
                     19                     20                     21
                      A                      A                      A
 Frequencies --    877.8145               922.7674               951.9402
 Red. masses --      7.7046                 1.7128                 1.9640
 Frc consts  --      3.4979                 0.8593                 1.0486
 IR Inten    --     45.7179                29.9374                 8.0299
  Atom  AN      X      Y      Z        X      Y      Z        X      Y      Z
     1   6     0.08  -0.06  -0.03    -0.10  -0.01  -0.02    -0.12   0.10   0.00
     2   6    -0.01  -0.02   0.01    -0.03  -0.03  -0.01     0.07   0.02  -0.00
     3   6     0.03   0.02  -0.04    -0.05  -0.04   0.02    -0.02   0.03   0.00
[...]
   zx        -0.791680D+00     -0.117315D+00     -0.130530D+00
   zy        -0.353247D+01     -0.523459D+00     -0.582426D+00
   zz         0.705273D+02      0.104511D+02      0.116284D+02

 ----------------------------------------------------------------------

 Dipole orientation:
     6         -1.08015788         -0.14882921          2.89970052
     6          1.15694741          1.17957652          3.28370661
     6          3.00639393         -0.45174386          4.42928680
     6          1.92369993         -2.73581813          4.88981663
     6         -0.82808366         -2.66757369          4.21684015
     8          1.27046507         -3.09572420         -0.53216585
     6          0.24106927         -1.07418500         -0.66709735
     6         -0.47044504          0.76014488         -2.30369658
    17         -1.89745043          3.64155641         -1.57686240
    17         -0.27013101          0.06509278         -5.53510653
     1         -2.88380738          0.72009865          2.48008091
     1          1.47425622          3.12928643          2.74423555
     1          4.96109766          0.05734888          4.76588477
     1          2.86499208         -4.38590254          5.65694600
     1         -2.00001448         -2.64877147          5.93792055
     1         -1.42793564         -4.28875110          3.08435796

 Electric dipole moment (dipole orientation):
 (Debye = 10**-18 statcoulomb cm , SI units = C m)
                  (au)            (Debye)         (10**-30 SI)
   Tot        0.198293D+01      0.504012D+01      0.168120D+02
   x          0.000000D+00      0.000000D+00      0.000000D+00
   y          0.000000D+00      0.000000D+00      0.000000D+00
   z          0.198293D+01      0.504012D+01      0.168120D+02

 Dipole polarizability, Alpha (dipole orientation).
 (esu units = cm**3 , SI units = C**2 m**2 J**-1)
 Alpha(0;0):
               (au)            (10**-24 esu)      (10**-40 SI)
   iso        0.103363D+03      0.153168D+02      0.170422D+02
   aniso      0.717880D+02      0.106379D+02      0.118362D+02
   xx         0.751712D+02      0.111392D+02      0.123941D+02
   yx        -0.992820D+01     -0.147121D+01     -0.163694D+01
   yy         0.968992D+02      0.143590D+02      0.159765D+02
   zx         0.162763D+02      0.241190D+01      0.268361D+01
   zy        -0.183194D+02     -0.271466D+01     -0.302046D+01
   zz         0.138018D+03      0.204521D+02      0.227560D+02

 ----------------------------------------------------------------------
 1\1\GINC-SWANNODE-0-15\Freq\RB3LYP\6-31G(d)\C7H6Cl2O1\ROOT\15-Jul-2020
 \0\\# int=ultrafine b3lyp/6-31g(d) freq=(hpmodes,intmodes)\\18-TS1-fre
 q-b3lyp-631gd-1\\0,1\C,1.30323,0.723546,0.682312\C,1.522857,1.013894,-
 0.66095\C,2.584848,0.186286,-1.168665\C,3.079896,-0.565366,-0.149596\C
 ,2.413785,-0.191154,1.140696\O,0.436566,-1.739066,0.00288\C,-0.106212,
 -0.668477,0.076594\C,-1.306295,-0.050224,-0.031128\Cl,-1.62953,1.65938
 ,0.094925\Cl,-2.727101,-1.071404,-0.126416\H,0.732425,1.347538,1.35798
 2\H,0.957013,1.731636,-1.243058\H,2.891605,0.144309,-2.207122\H,3.8534
 97,-1.320661,-0.229807\H,3.105256,0.380088,1.780793\H,2.077733,-1.0570
 14,1.717959\\Version=ES64L-G16RevB.01\State=1-A\HF=-1265.8548793\RMSD=
 9.554e-09\RMSF=5.662e-07\ZeroPoint=0.1102472\Thermal=0.119702\Dipole=1
 .8166941,0.7774268,0.1651001\DipoleDeriv=-0.3709739,-0.1957021,0.20787
 78,-0.4091318,-0.2354654,0.0874756,0.1501577,0.0602373,0.0650847,0.623
 5481,-0.1905901,-0.0641288,-0.2363372,0.0034178,-0.102276,-0.3254842,-
 0.1390966,-0.0262671,-0.3910565,0.0792409,-0.0994294,0.3209201,-0.1933
 653,0.103472,-0.3618999,0.0462822,0.0994149,-0.0550851,-0.1606644,-0.0
 108822,-0.1176908,0.1036,-0.0551395,0.3723561,-0.0777874,0.170997,0.00
 46043,0.1310505,-0.0632376,0.0586849,0.0416043,-0.0204577,-0.0488283,0
 .0839566,-0.1802332,-0.636161,0.3200902,-0.0196219,0.1315446,-1.200698
 6,0.0502552,-0.0480904,-0.0735256,-0.2508339,0.8978824,-0.2518105,0.00
 316,0.323556,1.2090713,-0.073183,0.1520538,0.0787542,0.1391532,0.51042
 47,0.440711,0.0553199,-0.0943685,0.7846433,0.1028247,0.1514311,0.13316
 24,-0.2555906,-0.2005946,-0.0083749,-0.0094325,0.1838518,-0.5411995,-0
 .030204,0.0460314,-0.0616531,-0.023691,-0.747569,-0.2806313,-0.0419863
 ,-0.3599905,-0.3561267,-0.039034,-0.1267062,-0.0362992,0.0024618,0.081
 1734,0.039536,-0.0087615,0.075098,0.0667877,-0.055973,0.0104256,-0.015
 5064,0.056028,0.0519061,0.0585351,-0.027085,0.0412765,0.0602947,0.0340
 709,-0.0357928,0.0311375,0.0631416,0.0731101,0.0272621,0.0396808,0.038
 6925,0.117889,-0.0060851,0.0677845,0.0092931,-0.0424402,0.0200102,0.07
 29488,0.0200969,0.0739707,0.0471496,-0.006613,0.0189998,-0.0143557,0.0
 693781,0.0211831,-0.0391366,-0.0450922,-0.0461995,0.0593186,-0.0475229
 ,-0.0596021,-0.035019,0.0349795,0.1175977,-0.0424646,0.063522,0.016123
 3,0.0330793,0.0583899,0.0371639,0.0104196,0.0784172\Polar=149.6384477,
 -2.1465281,89.922216,-0.7916802,-3.5324746,70.5273356\Quadrupole=2.229
 5991,-3.5832801,1.353681,-0.3660699,0.2012505,-0.7262393\PG=C01 [X(C7H
 6Cl2O1)]\NImag=1\\0.37147710,-0.25219475,0.36488403,-0.13704024,0.0377
 2370,0.68854200,-0.06408012,0.03036117,0.04800215,0.41347564,0.0186208
 3,-0.09033691,0.07126876,-0.26279983,0.45012773,0.01811619,0.04282612,
 -0.35853663,0.00011171,-0.16716923,0.65375656,-0.02234529,-0.00530082,
 0.03807954,-0.16789137,0.09529663,0.03728546,0.38435986,0.02086303,0.0
 2052743,-0.02347542,0.07945841,-0.13807688,-0.01284829,-0.21406281,0.3
 5323725,0.02047892,-0.01991979,-0.02649634,0.06672128,-0.03404396,-0.1
 3484025,-0.07793153,-0.11082737,0.83141257,-0.03388319,0.02321322,0.01
 957717,-0.02255213,0.02978533,-0.00947281,-0.12770657,0.09356341,-0.09
 064599,0.47155567,0.01856568,-0.02085948,-0.00988900,0.04296197,-0.027
 04690,-0.00253354,0.08587475,-0.18074058,0.15464457,-0.32718030,0.4977
 3060,0.02105938,-0.00027140,-0.00987869,-0.03194246,0.01559448,0.02966
 748,-0.07755520,0.13855560,-0.31192284,0.01307136,-0.11553696,0.575536
 86,-0.13403341,0.06395831,-0.02724901,0.00146182,-0.00061479,-0.014333
 22,0.00352150,0.00145891,0.00071409,-0.10302003,0.02139333,0.06322920,
 0.46535598,0.05584312,-0.11954656,0.02230985,0.00881431,-0.01099530,0.
 02325482,-0.00093938,0.00529469,0.01464183,0.02164914,-0.08838478,-0.0
 3285806,0.05021591,0.53316245,-0.00747974,0.01692109,-0.08395874,-0.01
 610353,0.01674022,-0.03315690,-0.00454794,0.01293475,-0.04472044,0.046
 64455,-0.02236521,-0.16538697,0.02092391,-0.05382958,0.56216362,0.0016
 9826,-0.00305558,0.00072847,-0.00923279,-0.00295584,0.00284123,0.00413
 151,-0.00921209,0.00079614,0.00613042,0.00200986,-0.00351340,-0.003024
 48,-0.00245036,-0.00585953,0.23508439,-0.02632869,-0.04531455,0.007133
 53,0.00843682,-0.00944140,-0.02276315,-0.00409885,0.00824109,-0.003148
 14,-0.00439136,-0.00231357,0.00495917,0.00308475,-0.00130380,0.0031819
 5,-0.31676593,0.67415167,-0.00667474,-0.00963870,-0.00017821,0.0051351
 3,0.00366561,-0.00231015,-0.00356835,0.00395013,0.00015365,-0.00049990
 ,-0.00034120,0.00106351,-0.00010462,-0.00252292,-0.00236087,-0.0138443
 6,0.04353707,0.03894060,0.02800689,0.04321343,-0.02148830,-0.00342761,
 0.00197544,0.03383660,-0.00272066,-0.00379443,0.00104652,-0.00279215,-
 0.00081292,-0.00014513,-0.01554970,-0.00568350,-0.00605460,-0.21361851
 ,0.32114135,0.02695202,0.60205362,0.04872248,0.03881303,-0.01665977,-0
 .02600151,-0.00642913,0.04162011,0.01249348,-0.01765672,0.00571578,0.0
 1398632,0.00441723,-0.00854905,-0.00366098,0.00275526,-0.00848096,0.28
 848954,-0.59450430,-0.03939120,-0.51113964,0.74715941,0.02482060,0.025
 57939,-0.01344654,-0.01085923,-0.00278134,0.01042935,0.01268219,-0.008
 86658,0.00269834,0.00287103,0.00379227,-0.00812021,-0.01020056,-0.0036
 9377,-0.00545867,0.01812069,-0.02863714,-0.04987201,-0.01537481,0.0124
 5423,0.09267338,-0.02121508,-0.01485955,0.00348571,-0.00542736,-0.0021
 2412,-0.00909395,0.00133823,0.00001094,0.00082992,0.00102530,0.0011584
 3,-0.00143583,0.00166912,0.00026461,0.00101080,-0.02038426,0.02028574,
 -0.00720137,-0.35014602,0.17773534,-0.01341313,0.55834322,-0.00826655,
 -0.00312587,0.00099376,0.00380704,0.00045521,-0.00509182,-0.00328578,0
 .00336469,-0.00128327,-0.00249947,-0.00219730,0.00267826,-0.00066675,-
 0.00094858,-0.00041782,0.04508164,-0.03570861,0.00282443,0.15613039,-0
 .13080451,0.00965335,-0.15987310,0.39883173,-0.00841267,-0.00683805,0.
 00049218,-0.00041701,0.00168561,-0.00527674,0.00032005,0.00011904,0.00
 066788,0.00039025,-0.00013704,-0.00084502,0.00041204,0.00020484,0.0005
 0408,-0.00416658,0.00278255,0.00762579,-0.00363498,0.00410086,-0.02182
 677,0.02388707,0.01227278,0.03512385,-0.00476282,0.00369630,-0.0017556
 9,-0.00271731,0.00116741,0.00094348,-0.00060523,-0.00044235,-0.0008199
 0,-0.00057593,0.00033792,-0.00007555,-0.00066743,-0.00026785,0.0009705
 1,-0.00108858,-0.00036627,-0.00119625,-0.00382412,0.02487020,0.0032571
 3,-0.03872692,0.02596151,-0.00064024,0.05624216,0.00034303,-0.00165097
 ,-0.00052339,-0.00050052,-0.00032443,0.00063853,0.00036850,0.00022410,
 0.00039661,-0.00010440,0.00015709,-0.00057636,0.00018178,0.00050627,0.
 00035910,0.00383421,-0.00193939,-0.00025385,0.00183099,-0.02433075,-0.
 00154851,0.04274530,-0.16328507,-0.00993307,-0.03686607,0.22373071,-0.
 00099348,0.00221837,-0.00184201,0.00099668,-0.00022448,-0.00029972,0.0
 0040309,-0.00048221,0.00061588,0.00022502,0.00032847,-0.00051620,-0.00
 025776,-0.00018841,0.00042101,0.00076189,-0.00190575,0.00716296,-0.004
 83557,0.00318871,-0.00833981,0.00377201,-0.01449436,-0.00726019,0.0011
 6001,0.01379973,0.00875040,-0.00162626,-0.00022272,0.00119828,0.002797
 26,0.00033016,-0.00322740,-0.00197702,0.00192387,-0.00108538,-0.000918
 31,-0.00077372,0.00143565,-0.00050556,-0.00065112,0.00005188,0.0017671
 5,0.00011991,0.00027939,-0.03485025,-0.02394284,-0.00199040,-0.1273499
 0,-0.05323087,-0.00767257,0.00027994,-0.01215491,-0.00042799,0.1632135
 6,0.00141683,0.00106435,-0.00073372,0.00140512,0.00021937,0.00042169,-
 0.00033316,0.00051191,-0.00044438,-0.00012454,0.00006787,0.00049049,-0
 .00016767,-0.00028624,-0.00001906,0.00036089,0.00706433,0.00115866,-0.
 00328580,-0.00768059,-0.00159961,-0.06653284,-0.06598340,-0.00506955,-
 0.02073145,-0.03380646,-0.00249112,0.08828555,0.09895315,-0.00029182,-
 0.00072169,0.00211873,0.00110770,-0.00063017,0.00069065,-0.00088683,0.
 00108695,-0.00070515,-0.00060148,-0.00029680,0.00120824,0.00021268,0.0
 0050452,0.00032239,0.00195079,-0.00200490,-0.00088714,-0.00903059,0.00
 245538,0.00014336,-0.00221877,-0.00596231,-0.00991781,-0.00184481,-0.0
 0245340,0.00113873,0.01130028,0.00828645,0.00621129,-0.12094636,0.1048
 0554,0.09704508,-0.00313004,0.00234643,0.00580962,0.00536356,0.0000628
 4,0.00259096,-0.00195523,0.00247959,-0.00406482,-0.00612151,0.00565698
 ,0.01241344,-0.00076263,0.00068731,0.00040778,-0.00196139,-0.00604217,
 -0.00648300,0.00024818,-0.00141592,-0.00043054,-0.00243585,0.00028791,
 -0.00131281,-0.00022258,-0.00017829,0.00032625,0.13273243,0.11118518,-
 0.14044027,-0.11156576,-0.00903748,0.00913860,0.01023854,0.00305205,-0
 .00039382,0.00367543,0.00199451,-0.00164460,-0.00025743,0.00119812,-0.
 00513797,-0.01072059,-0.00069783,-0.00000676,0.00005493,-0.00188038,-0
 .00714429,-0.00644099,0.00119757,-0.00056410,0.00076169,0.00156681,0.0
 0054998,0.00060691,0.00001848,-0.00023581,0.00008082,-0.10823001,0.144
 84523,0.09903058,-0.10428227,-0.17397164,0.01449659,-0.01867919,-0.008
 63857,0.00121143,0.00137980,-0.00465209,-0.00291246,0.00273431,-0.0023
 8898,-0.00545766,0.00694308,0.01182033,-0.00043269,-0.00006104,-0.0000
 2329,0.00032180,-0.00096669,-0.00099533,0.00000993,-0.00173601,0.00031
 705,-0.00024083,0.00104306,0.00004882,-0.00005386,0.00020134,-0.000038
 61,-0.10735587,0.11429433,0.17621405,0.00758744,-0.00531580,0.00491219
 ,-0.13207383,0.11210338,-0.08238212,-0.00238196,0.01076399,-0.01302432
 ,-0.00180852,0.00425320,0.00180608,0.00262725,0.00446204,0.00279253,0.
 00007393,-0.00008863,0.00021888,-0.00002138,0.00039455,0.00032558,0.00
 006139,-0.00112710,0.00063070,-0.00108117,0.00016864,0.00072341,-0.000
 16492,0.00000622,-0.00028786,-0.00161742,-0.00118653,-0.00034614,0.129
 12972,0.00227391,0.00084015,0.00156558,0.11177613,-0.17952339,0.105464
 23,0.00348082,-0.00194629,0.00909932,0.00332573,-0.00018967,0.00053602
 ,0.00321830,0.00498773,0.00044453,0.00030081,-0.00016285,0.00003003,0.
 00004550,0.00010697,0.00105872,0.00012566,-0.00064685,0.00004318,0.001
 00530,0.00020989,-0.00032660,-0.00012938,-0.00012718,-0.00016431,-0.00
 194449,-0.00145744,0.00028206,-0.12270796,0.17916752,-0.01835384,0.017
 94033,-0.00673588,-0.07668770,0.10904435,-0.14418150,0.00579127,-0.008
 72696,0.01168900,0.00337647,-0.00187844,-0.00161548,0.00316483,0.00309
 803,-0.00393227,0.00041525,-0.00035894,0.00013019,-0.00082614,-0.00014
 817,0.00034629,0.00028113,0.00104345,0.00024903,0.00002638,-0.00070364
 ,0.00007466,-0.00001508,-0.00026874,-0.00011056,-0.00034578,-0.0010596
 6,0.00085861,0.08526448,-0.11868757,0.14287797,-0.00172484,0.00467882,
 0.00188118,-0.00197419,-0.00331105,0.01977158,-0.07267676,0.01386826,0
 .08168186,0.00757938,-0.00196718,-0.01342228,0.00367356,0.00728875,-0.
 00046642,0.00024173,-0.00076809,-0.00005307,0.00059397,0.00144848,-0.0
 0008073,-0.00000776,-0.00001976,-0.00002593,-0.00000342,-0.00002715,-0
 .00001762,-0.00009771,-0.00006903,-0.00001574,0.00015982,-0.00046855,0
 .00136337,-0.00029209,-0.00079069,-0.00083247,0.06619511,0.00437079,-0
 .00092489,-0.00087138,0.00187567,0.00301848,-0.01766924,0.01492124,-0.
 04869418,-0.00935699,-0.00721349,0.00620523,0.01658342,0.00640154,0.00
 352010,0.00329812,0.00011616,0.00005962,-0.00014673,-0.00011239,0.0000
 6176,-0.00007765,-0.00000667,0.00008403,0.00006622,0.00001387,-0.00005
 427,-0.00000847,0.00006853,0.00000627,0.00000588,0.00028376,0.00069600
 ,-0.00049507,-0.00103160,-0.00046242,0.00040453,-0.01656955,0.03849179
 ,0.00006710,0.00028652,-0.00029764,-0.00148449,0.00165125,-0.00159249,
 0.08268737,-0.00804196,-0.32686515,0.00827790,-0.00455077,-0.01329287,
 0.00044169,0.00343865,-0.00096033,0.00003451,0.00026758,0.00013906,-0.
 00015053,-0.00038508,-0.00003643,-0.00009019,0.00007729,0.00001775,0.0
 0005244,-0.00003454,-0.00000276,0.00011702,0.00004790,0.00000979,0.000
 13701,0.00019149,0.00011956,0.00021212,-0.00040857,0.00001925,-0.08953
 539,0.00833462,0.34328811,-0.00037659,0.00122108,0.00176686,0.00342527
 ,0.00487317,-0.00095912,-0.00054261,0.00655637,0.00370588,-0.19803002,
 0.15698050,0.01822133,-0.00272687,0.00341627,-0.00237236,0.00038455,-0
 .00047943,-0.00007621,0.00043497,0.00040223,0.00012290,0.00022377,0.00
 000153,0.00008720,0.00001190,-0.00002335,-0.00006681,-0.00002579,-0.00
 005559,-0.00002289,0.00037502,0.00114869,-0.00048353,-0.00046476,-0.00
 011624,0.00031408,-0.00190952,-0.00239160,-0.00086618,0.19938031,-0.00
 098788,0.00053515,0.00039056,0.00537554,0.00209319,0.00230723,0.010192
 36,-0.00210710,-0.00553240,0.15681332,-0.19109354,-0.01091061,0.001437
 02,-0.00158557,0.00228597,0.00024735,0.00016889,-0.00002181,0.00025129
 ,-0.00012308,0.00028391,0.00010673,-0.00011465,0.00009704,0.00017021,0
 .00008591,-0.00003425,0.00003761,0.00001261,-0.00006061,0.00074907,0.0
 0119804,-0.00008326,0.00013651,-0.00028735,-0.00030655,-0.00243113,-0.
 00191216,-0.00044681,-0.17215703,0.19262162,0.00122006,-0.00151601,-0.
 00563049,-0.00028082,0.00370842,-0.00425114,-0.01729872,0.01632777,0.0
 0881240,0.02022629,-0.01379993,-0.06046353,0.01659464,-0.01657867,0.00
 606881,-0.00006058,0.00000071,0.00005125,0.00011891,0.00000379,0.00014
 813,-0.00001758,-0.00008975,0.00005900,0.00010282,0.00003641,0.0001145
 1,0.00000773,0.00001132,-0.00007299,0.00120892,-0.00033693,0.00098945,
 -0.00099477,0.00046907,0.00094845,0.00006761,-0.00132132,0.00052678,-0
 .01984854,0.01262661,0.05201140,-0.01453786,-0.01134165,-0.01542092,-0
 .00258621,0.00234987,0.00158247,-0.00095691,-0.00155233,0.00226916,0.0
 1128326,0.00793992,0.00897793,-0.14106899,-0.08381679,-0.09199158,-0.0
 0043830,0.00141537,0.00015866,-0.00141027,-0.00092175,-0.00206547,0.00
 055015,-0.00042623,-0.00005059,-0.00013584,0.00027452,-0.00007043,-0.0
 0030097,-0.00006005,0.00020846,0.00055002,0.00051769,0.00047160,0.0009
 8018,0.00096796,-0.00000166,-0.00068410,-0.00106277,-0.00014209,-0.000
 54678,-0.00038312,-0.00075979,0.15557927,0.01154151,0.00776623,0.01296
 761,0.00114555,-0.00085866,0.00151869,0.00262314,-0.00091131,-0.000500
 61,-0.00564623,-0.00496396,-0.00593395,-0.08346904,-0.10617132,-0.0761
 8924,-0.00237859,0.00052518,-0.00121782,0.00198329,-0.00230848,0.00103
 284,-0.00044916,0.00051851,-0.00007222,-0.00003081,-0.00003737,0.00004
 054,0.00016057,0.00009456,-0.00010982,-0.00043327,0.00038137,-0.000696
 57,-0.00119082,-0.00120209,-0.00011229,0.00002196,0.00020680,0.0000501
 5,0.00079444,0.00045182,-0.00026620,0.09177887,0.11978042,-0.00525807,
 -0.00295868,-0.00563200,0.00035453,-0.00115111,-0.00071906,0.00115372,
 -0.00005415,-0.00208512,-0.01670486,-0.01194177,-0.01826343,-0.0965467
 6,-0.08096206,-0.12547981,0.00062123,-0.00007808,0.00031669,0.00003697
 ,0.00048641,0.00059245,0.00016375,-0.00008010,0.00007954,-0.00000223,0
 .00005264,0.00000233,0.00001163,-0.00002528,-0.00003721,0.00018232,0.0
 0035113,0.00028149,0.00040248,0.00063856,-0.00007185,0.00121226,0.0017
 9486,-0.00006975,0.00102841,0.00044662,0.00024347,0.10292953,0.0850202
 2,0.13996769,0.01076214,0.01714300,-0.01372249,-0.00606705,0.00295698,
 -0.00082975,0.00108971,0.00053399,0.00267239,-0.00433194,-0.01322103,0
 .00435374,-0.07159125,-0.06380213,0.05006808,-0.00096240,-0.00188399,0
 .00006700,-0.00076741,0.00316629,-0.00173278,-0.00020205,-0.00017058,-
 0.00027621,0.00009063,-0.00035848,-0.00005963,-0.00001866,0.00006382,0
 .00009461,-0.00027602,-0.00037830,0.00037774,-0.00055386,-0.00083135,-
 0.00157122,0.00092681,0.00033654,0.00024170,0.00038716,0.00044215,-0.0
 0028617,-0.00627665,-0.01645141,0.01041511,0.07779084,-0.00596855,-0.0
 1223087,0.00936507,0.00292162,-0.00201958,-0.00021470,-0.00028217,-0.0
 0087429,-0.00311663,0.00282881,0.01085632,-0.00450359,-0.06396871,-0.2
 1586639,0.11585674,-0.00292424,0.00048443,-0.00168664,0.00013738,-0.00
 233182,-0.00020911,0.00021514,0.00012478,-0.00008387,-0.00008472,-0.00
 003525,-0.00002707,0.00016088,0.00012526,-0.00001598,0.00088473,0.0002
 1585,0.00012211,0.00035992,0.00069325,0.00072024,-0.00088407,-0.000302
 15,-0.00047771,-0.00017103,0.00005621,0.00072472,-0.00567951,-0.013271
 70,0.00846080,0.07245450,0.23437596,-0.00028824,0.00265108,-0.00454810
 ,0.00084946,0.00132079,-0.00074091,0.00217443,-0.00103110,-0.00376234,
 0.00617745,0.02177106,-0.01478185,0.04845653,0.11623785,-0.11588523,0.
 00160693,-0.00290543,0.00004798,-0.00077218,0.00455564,0.00106447,0.00
 003051,-0.00038788,-0.00000961,0.00006272,-0.00029934,-0.00006860,0.00
 007083,0.00003362,-0.00007372,-0.00012856,0.00012609,0.00005915,-0.000
 25323,-0.00004424,-0.00054591,-0.00152821,-0.00054079,-0.00100287,-0.0
 0055103,-0.00104165,0.00044451,-0.00609528,-0.01553134,0.01087458,-0.0
 4981211,-0.12491438,0.12892846\\0.00000056,-0.00000097,-0.00000011,-0.
 00000018,0.00000047,0.00000039,0.00000023,0.00000067,-0.00000013,-0.00
 000061,0.00000021,0.00000013,0.00000028,-0.00000041,0.00000041,0.00000
 015,-0.00000052,-0.00000104,-0.00000079,0.00000095,-0.00000048,0.00000
 064,-0.00000007,-0.00000027,0.00000031,0.00000031,0.00000065,-0.000000
 24,0.00000032,-0.00000086,-0.00000016,-0.00000042,0.00000102,0.0000001
 2,0.00000076,0.00000092,0.00000007,0.00000110,0.00000034,0.00000014,-0
 .00000025,-0.00000054,-0.00000025,-0.00000121,0.00000014,-0.00000028,-
 0.00000094,-0.00000058\\\@


 THE GREAT THING ABOUT BEING IMPERFECT IS THE JOY IT BRINGS OTHERS.
   -- SIGN OUTSIDE LAKE AGASSIZ JR. HIGH SCHOOL, FARGO, N.D.
 Job cpu time:       0 days  0 hours 48 minutes 20.4 seconds.
 Elapsed time:       0 days  0 hours  4 minutes  2.2 seconds.
 File lengths (MBytes):  RWF=     67 Int=      0 D2E=      0 Chk=      3 Scr=      1
 Normal termination of Gaussian 16 at Wed Jul 15 21:34:57 2020.
