 Entering Gaussian System, Link 0=/usr/local/shared/gaussian/x86_64_sse4/16-B01/g16/g16
 Initial command:
 /usr/local/shared/gaussian/x86_64_sse4/16-B01/g16/l1.exe "/scratch/sl884/21-TS2B-freq-b3lyp-631gd-1/Gau-13953.inp" -scrdir="/scratch/sl884/21-TS2B-freq-b3lyp-631gd-1/"
 Entering Link 1 = /usr/local/shared/gaussian/x86_64_sse4/16-B01/g16/l1.exe PID=     13957.
  
 Copyright (c) 1988-2017, Gaussian, Inc.  All Rights Reserved.
  
 This is part of the Gaussian(R) 16 program.  It is based on
 the Gaussian(R) 09 system (copyright 2009, Gaussian, Inc.),
 the Gaussian(R) 03 system (copyright 2003, Gaussian, Inc.),
 the Gaussian(R) 98 system (copyright 1998, Gaussian, Inc.),
 the Gaussian(R) 94 system (copyright 1995, Gaussian, Inc.),
 the Gaussian 92(TM) system (copyright 1992, Gaussian, Inc.),
 the Gaussian 90(TM) system (copyright 1990, Gaussian, Inc.),
 the Gaussian 88(TM) system (copyright 1988, Gaussian, Inc.),
 the Gaussian 86(TM) system (copyright 1986, Carnegie Mellon
 University), and the Gaussian 82(TM) system (copyright 1983,
 Carnegie Mellon University). Gaussian is a federally registered
 trademark of Gaussian, Inc.
  
 This software contains proprietary and confidential information,
 including trade secrets, belonging to Gaussian, Inc.
  
 This software is provided under written license and may be
 used, copied, transmitted, or stored only in accord with that
 written license.
  
 The following legend is applicable only to US Government
 contracts under FAR:
  
                    RESTRICTED RIGHTS LEGEND
  
 Use, reproduction and disclosure by the US Government is
 subject to restrictions as set forth in subparagraphs (a)
 and (c) of the Commercial Computer Software - Restricted
 Rights clause in FAR 52.227-19.
  
 Gaussian, Inc.
 340 Quinnipiac St., Bldg. 40, Wallingford CT 06492
  
  
 ---------------------------------------------------------------
 Warning -- This program may not be used in any manner that
 competes with the business of Gaussian, Inc. or will provide
 assistance to any competitor of Gaussian, Inc.  The licensee
 of this program is prohibited from giving any competitor of
 Gaussian, Inc. access to this program.  By using this program,
 the user acknowledges that Gaussian, Inc. is engaged in the
 business of creating and licensing software in the field of
 computational chemistry and represents and warrants to the
 licensee that it is not a competitor of Gaussian, Inc. and that
 it will not use this program in any manner prohibited above.
 ---------------------------------------------------------------
  

 Cite this work as:
 Gaussian 16, Revision B.01,
 M. J. Frisch, G. W. Trucks, H. B. Schlegel, G. E. Scuseria, 
 M. A. Robb, J. R. Cheeseman, G. Scalmani, V. Barone, 
 G. A. Petersson, H. Nakatsuji, X. Li, M. Caricato, A. V. Marenich, 
 J. Bloino, B. G. Janesko, R. Gomperts, B. Mennucci, H. P. Hratchian, 
 J. V. Ortiz, A. F. Izmaylov, J. L. Sonnenberg, D. Williams-Young, 
 F. Ding, F. Lipparini, F. Egidi, J. Goings, B. Peng, A. Petrone, 
 T. Henderson, D. Ranasinghe, V. G. Zakrzewski, J. Gao, N. Rega, 
 G. Zheng, W. Liang, M. Hada, M. Ehara, K. Toyota, R. Fukuda, 
 J. Hasegawa, M. Ishida, T. Nakajima, Y. Honda, O. Kitao, H. Nakai, 
 T. Vreven, K. Throssell, J. A. Montgomery, Jr., J. E. Peralta, 
 F. Ogliaro, M. J. Bearpark, J. J. Heyd, E. N. Brothers, K. N. Kudin, 
 V. N. Staroverov, T. A. Keith, R. Kobayashi, J. Normand, 
 K. Raghavachari, A. P. Rendell, J. C. Burant, S. S. Iyengar, 
 J. Tomasi, M. Cossi, J. M. Millam, M. Klene, C. Adamo, R. Cammi, 
 J. W. Ochterski, R. L. Martin, K. Morokuma, O. Farkas, 
 J. B. Foresman, and D. J. Fox, Gaussian, Inc., Wallingford CT, 2016.
 
 ******************************************
 Gaussian 16:  ES64L-G16RevB.01 20-Dec-2017
                15-Jul-2020 
 ******************************************
 %nproc=12
 Will use up to   12 processors via shared memory.
 %mem=12GB
 %chk=21-TS2B-freq-b3lyp-631gd-1.chk
 ------------------------------------------------------
 # int=ultrafine b3lyp/6-31g(d) freq=(hpmodes,intmodes)
 ------------------------------------------------------
 1/10=4,18=20,30=1,38=1/1,3;
 2/9=110,12=2,17=6,18=5,40=1/2;
 3/5=1,6=6,7=1,11=2,25=1,30=1,71=2,74=-5,75=-5,140=1/1,2,3;
 4//1;
 5/5=2,38=5,98=1/2;
 8/6=4,10=90,11=11/1;
 11/6=1,8=1,9=11,15=111,16=1/1,2,10;
 10/6=1/2;
 6/7=2,8=2,9=2,10=2,28=1/1;
 7/8=31,10=1,25=1/1,2,3,16;
 1/10=4,18=20,30=1/3;
 99//99;
 --------------------------
 21-TS2B-freq-b3lyp-631gd-1
 --------------------------
 Symbolic Z-matrix:
 Charge =  0 Multiplicity = 1
 C                    -1.1665    0.77382  -0.60475 
 C                    -1.11055   0.85776   0.87663 
 C                    -2.107     0.00165   1.41451 
 C                    -2.88879  -0.48098   0.40128 
 C                    -2.54067   0.16399  -0.91098 
 O                    -0.48356  -1.55672  -0.82956 
 C                    -0.11276  -0.40631  -0.61511 
 C                     1.11889  -0.03949   0.01714 
 Cl                    1.79696   1.57537  -0.13932 
 Cl                    2.30422  -1.27499   0.30444 
 H                    -0.86589   1.65128  -1.17531 
 H                    -0.46366   1.51506   1.44028 
 H                    -2.19909  -0.25518   2.46363 
 H                    -3.69555  -1.19674   0.5204 
 H                    -3.26691   0.95518  -1.15055 
 H                    -2.51628  -0.5449   -1.74132 
 

 GradGradGradGradGradGradGradGradGradGradGradGradGradGradGradGradGradGrad
 Berny optimization.
 Initialization pass.
                           ----------------------------
                           !    Initial Parameters    !
                           ! (Angstroms and Degrees)  !
 --------------------------                            --------------------------
 ! Name  Definition              Value          Derivative Info.                !
 --------------------------------------------------------------------------------
 ! R1    R(1,2)                  1.4848         calculate D2E/DX2 analytically  !
 ! R2    R(1,5)                  1.5343         calculate D2E/DX2 analytically  !
 ! R3    R(1,7)                  1.5821         calculate D2E/DX2 analytically  !
 ! R4    R(1,11)                 1.089          calculate D2E/DX2 analytically  !
 ! R5    R(2,3)                  1.4196         calculate D2E/DX2 analytically  !
 ! R6    R(2,12)                 1.0808         calculate D2E/DX2 analytically  !
 ! R7    R(3,4)                  1.3678         calculate D2E/DX2 analytically  !
 ! R8    R(3,13)                 1.084          calculate D2E/DX2 analytically  !
 ! R9    R(4,5)                  1.5031         calculate D2E/DX2 analytically  !
 ! R10   R(4,14)                 1.0851         calculate D2E/DX2 analytically  !
 ! R11   R(5,15)                 1.1004         calculate D2E/DX2 analytically  !
 ! R12   R(5,16)                 1.0921         calculate D2E/DX2 analytically  !
 ! R13   R(6,7)                  1.2276         calculate D2E/DX2 analytically  !
 ! R14   R(7,8)                  1.4322         calculate D2E/DX2 analytically  !
 ! R15   R(8,9)                  1.7584         calculate D2E/DX2 analytically  !
 ! R16   R(8,10)                 1.7361         calculate D2E/DX2 analytically  !
 ! A1    A(2,1,5)              104.7948         calculate D2E/DX2 analytically  !
 ! A2    A(2,1,7)               91.3527         calculate D2E/DX2 analytically  !
 ! A3    A(2,1,11)             117.8255         calculate D2E/DX2 analytically  !
 ! A4    A(5,1,7)              107.3819         calculate D2E/DX2 analytically  !
 ! A5    A(5,1,11)             117.577          calculate D2E/DX2 analytically  !
 ! A6    A(7,1,11)             114.4397         calculate D2E/DX2 analytically  !
 ! A7    A(1,2,3)              108.5106         calculate D2E/DX2 analytically  !
 ! A8    A(1,2,12)             125.2559         calculate D2E/DX2 analytically  !
 ! A9    A(3,2,12)             126.1057         calculate D2E/DX2 analytically  !
 ! A10   A(2,3,4)              109.4715         calculate D2E/DX2 analytically  !
 ! A11   A(2,3,13)             124.696          calculate D2E/DX2 analytically  !
 ! A12   A(4,3,13)             125.7878         calculate D2E/DX2 analytically  !
 ! A13   A(3,4,5)              111.2817         calculate D2E/DX2 analytically  !
 ! A14   A(3,4,14)             125.1992         calculate D2E/DX2 analytically  !
 ! A15   A(5,4,14)             123.4433         calculate D2E/DX2 analytically  !
 ! A16   A(1,5,4)              101.7557         calculate D2E/DX2 analytically  !
 ! A17   A(1,5,15)             110.4132         calculate D2E/DX2 analytically  !
 ! A18   A(1,5,16)             112.9404         calculate D2E/DX2 analytically  !
 ! A19   A(4,5,15)             110.2275         calculate D2E/DX2 analytically  !
 ! A20   A(4,5,16)             112.9828         calculate D2E/DX2 analytically  !
 ! A21   A(15,5,16)            108.4177         calculate D2E/DX2 analytically  !
 ! A22   A(1,7,6)              119.9327         calculate D2E/DX2 analytically  !
 ! A23   A(1,7,8)              112.261          calculate D2E/DX2 analytically  !
 ! A24   A(6,7,8)              125.2325         calculate D2E/DX2 analytically  !
 ! A25   A(7,8,9)              121.8394         calculate D2E/DX2 analytically  !
 ! A26   A(7,8,10)             118.5505         calculate D2E/DX2 analytically  !
 ! A27   A(9,8,10)             113.8907         calculate D2E/DX2 analytically  !
 ! D1    D(5,1,2,3)             17.6143         calculate D2E/DX2 analytically  !
 ! D2    D(5,1,2,12)          -158.4763         calculate D2E/DX2 analytically  !
 ! D3    D(7,1,2,3)            -90.765          calculate D2E/DX2 analytically  !
 ! D4    D(7,1,2,12)            93.1444         calculate D2E/DX2 analytically  !
 ! D5    D(11,1,2,3)           150.522          calculate D2E/DX2 analytically  !
 ! D6    D(11,1,2,12)          -25.5686         calculate D2E/DX2 analytically  !
 ! D7    D(2,1,5,4)            -19.8945         calculate D2E/DX2 analytically  !
 ! D8    D(2,1,5,15)            97.1233         calculate D2E/DX2 analytically  !
 ! D9    D(2,1,5,16)          -141.304          calculate D2E/DX2 analytically  !
 ! D10   D(7,1,5,4)             76.3206         calculate D2E/DX2 analytically  !
 ! D11   D(7,1,5,15)          -166.6616         calculate D2E/DX2 analytically  !
 ! D12   D(7,1,5,16)           -45.0889         calculate D2E/DX2 analytically  !
 ! D13   D(11,1,5,4)          -152.9422         calculate D2E/DX2 analytically  !
 ! D14   D(11,1,5,15)          -35.9244         calculate D2E/DX2 analytically  !
 ! D15   D(11,1,5,16)           85.6483         calculate D2E/DX2 analytically  !
 ! D16   D(2,1,7,6)            105.1813         calculate D2E/DX2 analytically  !
 ! D17   D(2,1,7,8)            -57.5629         calculate D2E/DX2 analytically  !
 ! D18   D(5,1,7,6)             -0.7833         calculate D2E/DX2 analytically  !
 ! D19   D(5,1,7,8)           -163.5276         calculate D2E/DX2 analytically  !
 ! D20   D(11,1,7,6)          -133.245          calculate D2E/DX2 analytically  !
 ! D21   D(11,1,7,8)            64.0108         calculate D2E/DX2 analytically  !
 ! D22   D(1,2,3,4)             -7.4919         calculate D2E/DX2 analytically  !
 ! D23   D(1,2,3,13)           170.1941         calculate D2E/DX2 analytically  !
 ! D24   D(12,2,3,4)           168.5568         calculate D2E/DX2 analytically  !
 ! D25   D(12,2,3,13)          -13.7573         calculate D2E/DX2 analytically  !
 ! D26   D(2,3,4,5)             -6.3336         calculate D2E/DX2 analytically  !
 ! D27   D(2,3,4,14)           176.7525         calculate D2E/DX2 analytically  !
 ! D28   D(13,3,4,5)           176.0118         calculate D2E/DX2 analytically  !
 ! D29   D(13,3,4,14)           -0.9021         calculate D2E/DX2 analytically  !
 ! D30   D(3,4,5,1)             16.6534         calculate D2E/DX2 analytically  !
 ! D31   D(3,4,5,15)          -100.4989         calculate D2E/DX2 analytically  !
 ! D32   D(3,4,5,16)           138.0334         calculate D2E/DX2 analytically  !
 ! D33   D(14,4,5,1)          -166.3688         calculate D2E/DX2 analytically  !
 ! D34   D(14,4,5,15)           76.4789         calculate D2E/DX2 analytically  !
 ! D35   D(14,4,5,16)          -44.9888         calculate D2E/DX2 analytically  !
 ! D36   D(1,7,8,9)            -37.0557         calculate D2E/DX2 analytically  !
 ! D37   D(1,7,8,10)           171.2298         calculate D2E/DX2 analytically  !
 ! D38   D(6,7,8,9)            161.2883         calculate D2E/DX2 analytically  !
 ! D39   D(6,7,8,10)             9.5737         calculate D2E/DX2 analytically  !
 --------------------------------------------------------------------------------
 Trust Radius=3.00D-01 FncErr=1.00D-07 GrdErr=1.00D-07 EigMax=2.50D+02 EigMin=1.00D-04
 Number of steps in this run=      2 maximum allowed number of steps=      2.
 GradGradGradGradGradGradGradGradGradGradGradGradGradGradGradGradGradGrad

                          Input orientation:                          
 ---------------------------------------------------------------------
 Center     Atomic      Atomic             Coordinates (Angstroms)
 Number     Number       Type             X           Y           Z
 ---------------------------------------------------------------------
      1          6           0       -1.166504    0.773816   -0.604746
      2          6           0       -1.110551    0.857764    0.876626
      3          6           0       -2.107002    0.001649    1.414505
      4          6           0       -2.888792   -0.480984    0.401281
      5          6           0       -2.540665    0.163985   -0.910981
      6          8           0       -0.483559   -1.556720   -0.829558
      7          6           0       -0.112758   -0.406305   -0.615106
      8          6           0        1.118888   -0.039492    0.017143
      9         17           0        1.796964    1.575366   -0.139320
     10         17           0        2.304223   -1.274986    0.304438
     11          1           0       -0.865889    1.651276   -1.175311
     12          1           0       -0.463663    1.515063    1.440280
     13          1           0       -2.199093   -0.255180    2.463628
     14          1           0       -3.695545   -1.196737    0.520404
     15          1           0       -3.266914    0.955184   -1.150549
     16          1           0       -2.516278   -0.544900   -1.741320
 ---------------------------------------------------------------------
                    Distance matrix (angstroms):
                    1          2          3          4          5
     1  C    0.000000
     2  C    1.484803   0.000000
     3  C    2.357574   1.419564   0.000000
     4  C    2.356457   2.276036   1.367755   0.000000
     5  C    1.534273   2.392090   2.371139   1.503067   0.000000
     6  O    2.438924   3.022237   3.178034   2.908147   2.683121
     7  C    1.582142   2.195160   2.874501   2.957192   2.511475
     8  C    2.504243   2.552289   3.515776   4.050182   3.780892
     9  Cl   3.105036   3.162395   4.486859   5.145594   4.626282
    10  Cl   4.131604   4.066535   4.724505   5.254258   5.198156
    11  H    1.088967   2.213587   3.311914   3.335313   2.255389
    12  H    2.285949   1.080839   2.234200   3.308319   3.415813
    13  H    3.397056   2.223093   1.084021   2.186309   3.417654
    14  H    3.397807   3.321154   2.181517   1.085054   2.287832
    15  H    2.177732   2.961221   2.972226   2.147960   1.100376
    16  H    2.202885   3.285906   3.228847   2.175682   1.092051
                    6          7          8          9         10
     6  O    0.000000
     7  C    1.227574   0.000000
     8  C    2.363624   1.432216   0.000000
     9  Cl   3.935375   2.792925   1.758418   0.000000
    10  Cl   3.022755   2.727997   1.736088   2.928949   0.000000
    11  H    3.249148   2.261565   2.867051   2.858291   4.560951
    12  H    3.819478   2.835384   2.635608   2.758479   4.090929
    13  H    3.934735   3.722128   4.128051   5.108298   5.097250
    14  H    3.502690   3.840642   4.977073   6.187685   6.004164
    15  H    3.762946   3.476931   4.646304   5.200968   6.174805
    16  H    2.446842   2.657908   4.069651   5.066161   5.287285
                   11         12         13         14         15
    11  H    0.000000
    12  H    2.649841   0.000000
    13  H    4.319014   2.681924   0.000000
    14  H    4.358163   4.317996   2.627169   0.000000
    15  H    2.500016   3.857989   3.958219   2.758002   0.000000
    16  H    2.804878   4.310366   4.226835   2.632671   1.778403
                   16
    16  H    0.000000
 Stoichiometry    C7H6Cl2O
 Framework group  C1[X(C7H6Cl2O)]
 Deg. of freedom    42
 Full point group                 C1      NOp   1
 Largest Abelian subgroup         C1      NOp   1
 Largest concise Abelian subgroup C1      NOp   1
                         Standard orientation:                         
 ---------------------------------------------------------------------
 Center     Atomic      Atomic             Coordinates (Angstroms)
 Number     Number       Type             X           Y           Z
 ---------------------------------------------------------------------
      1          6           0       -1.166504    0.773816   -0.604746
      2          6           0       -1.110551    0.857764    0.876626
      3          6           0       -2.107002    0.001649    1.414505
      4          6           0       -2.888792   -0.480984    0.401281
      5          6           0       -2.540665    0.163985   -0.910981
      6          8           0       -0.483559   -1.556720   -0.829558
      7          6           0       -0.112758   -0.406305   -0.615106
      8          6           0        1.118888   -0.039492    0.017143
      9         17           0        1.796964    1.575366   -0.139320
     10         17           0        2.304223   -1.274986    0.304438
     11          1           0       -0.865889    1.651276   -1.175311
     12          1           0       -0.463663    1.515063    1.440280
     13          1           0       -2.199093   -0.255180    2.463628
     14          1           0       -3.695545   -1.196737    0.520404
     15          1           0       -3.266914    0.955184   -1.150549
     16          1           0       -2.516278   -0.544900   -1.741320
 ---------------------------------------------------------------------
 Rotational constants (GHZ):           1.7159628           0.7241695           0.6119071
 Standard basis: 6-31G(d) (6D, 7F)
 There are   170 symmetry adapted cartesian basis functions of A   symmetry.
 There are   170 symmetry adapted basis functions of A   symmetry.
   170 basis functions,   352 primitive gaussians,   170 cartesian basis functions
    45 alpha electrons       45 beta electrons
       nuclear repulsion energy       681.1253342925 Hartrees.
 NAtoms=   16 NActive=   16 NUniq=   16 SFac= 1.00D+00 NAtFMM=   60 NAOKFM=F Big=F
 Integral buffers will be    131072 words long.
 Raffenetti 2 integral format.
 Two-electron integral symmetry is turned on.
 One-electron integrals computed using PRISM.
 NBasis=   170 RedAO= T EigKep=  1.68D-03  NBF=   170
 NBsUse=   170 1.00D-06 EigRej= -1.00D+00 NBFU=   170
 ExpMin= 1.43D-01 ExpMax= 2.52D+04 ExpMxC= 3.78D+03 IAcc=3 IRadAn=         5 AccDes= 0.00D+00
 Harris functional with IExCor=  402 and IRadAn=       5 diagonalized for initial guess.
 HarFok:  IExCor=  402 AccDes= 0.00D+00 IRadAn=         5 IDoV= 1 UseB2=F ITyADJ=14
 ICtDFT=  3500011 ScaDFX=  1.000000  1.000000  1.000000  1.000000
 FoFCou: FMM=F IPFlag=           0 FMFlag=      100000 FMFlg1=           0
         NFxFlg=           0 DoJE=T BraDBF=F KetDBF=T FulRan=T
         wScrn=  0.000000 ICntrl=       500 IOpCl=  0 I1Cent=   200000004 NGrid=           0
         NMat0=    1 NMatS0=      1 NMatT0=    0 NMatD0=    1 NMtDS0=    0 NMtDT0=    0
 Petite list used in FoFCou.
 Requested convergence on RMS density matrix=1.00D-08 within 128 cycles.
 Requested convergence on MAX density matrix=1.00D-06.
 Requested convergence on             energy=1.00D-06.
 No special actions if energy rises.
 Integral accuracy reduced to 1.0D-05 until final iterations.
 EnCoef did     3 forward-backward iterations
 EnCoef did     2 forward-backward iterations
 Initial convergence to 1.0D-05 achieved.  Increase integral accuracy.
 SCF Done:  E(RB3LYP) =  -1265.86124457     A.U. after   18 cycles
            NFock= 18  Conv=0.99D-08     -V/T= 2.0048
 DoSCS=F DFT=T ScalE2(SS,OS)=  1.000000  1.000000
 Range of M.O.s used for correlation:     1   170
 NBasis=   170 NAE=    45 NBE=    45 NFC=     0 NFV=     0
 NROrb=    170 NOA=    45 NOB=    45 NVA=   125 NVB=   125
 Symmetrizing basis deriv contribution to polar:
 IMax=3 JMax=2 DiffMx= 0.00D+00
 G2DrvN: will do    17 centers at a time, making    1 passes.
 Calling FoFCou, ICntrl=  3107 FMM=F I1Cent=   0 AccDes= 0.00D+00.
 End of G2Drv F.D. properties file   721 does not exist.
 End of G2Drv F.D. properties file   722 does not exist.
 End of G2Drv F.D. properties file   788 does not exist.
          IDoAtm=1111111111111111
          Differentiating once with respect to electric field.
                with respect to dipole field.
          Differentiating once with respect to nuclear coordinates.
 Keep R1 ints in memory in canonical form, NReq=117582726.
          There are    51 degrees of freedom in the 1st order CPHF.  IDoFFX=6 NUNeed=     3.
     48 vectors produced by pass  0 Test12= 1.10D-14 1.96D-09 XBig12= 6.19D+02 2.30D+01.
 AX will form    48 AO Fock derivatives at one time.
     48 vectors produced by pass  1 Test12= 1.10D-14 1.96D-09 XBig12= 1.16D+02 2.11D+00.
     48 vectors produced by pass  2 Test12= 1.10D-14 1.96D-09 XBig12= 1.20D+00 1.88D-01.
     48 vectors produced by pass  3 Test12= 1.10D-14 1.96D-09 XBig12= 1.16D-02 2.80D-02.
     48 vectors produced by pass  4 Test12= 1.10D-14 1.96D-09 XBig12= 2.09D-05 6.12D-04.
     41 vectors produced by pass  5 Test12= 1.10D-14 1.96D-09 XBig12= 2.24D-08 1.61D-05.
      8 vectors produced by pass  6 Test12= 1.10D-14 1.96D-09 XBig12= 2.40D-11 5.56D-07.
      3 vectors produced by pass  7 Test12= 1.10D-14 1.96D-09 XBig12= 2.81D-14 2.48D-08.
 InvSVY:  IOpt=1 It=  1 EMax= 8.88D-15
 Solved reduced A of dimension   292 with    51 vectors.
 Isotropic polarizability for W=    0.000000      111.43 Bohr**3.
 End of Minotr F.D. properties file   721 does not exist.
 End of Minotr F.D. properties file   722 does not exist.
 End of Minotr F.D. properties file   788 does not exist.

 **********************************************************************

            Population analysis using the SCF Density.

 **********************************************************************

 Orbital symmetries:
       Occupied  (A) (A) (A) (A) (A) (A) (A) (A) (A) (A) (A) (A)
                 (A) (A) (A) (A) (A) (A) (A) (A) (A) (A) (A) (A)
                 (A) (A) (A) (A) (A) (A) (A) (A) (A) (A) (A) (A)
                 (A) (A) (A) (A) (A) (A) (A) (A) (A)
       Virtual   (A) (A) (A) (A) (A) (A) (A) (A) (A) (A) (A) (A)
                 (A) (A) (A) (A) (A) (A) (A) (A) (A) (A) (A) (A)
                 (A) (A) (A) (A) (A) (A) (A) (A) (A) (A) (A) (A)
                 (A) (A) (A) (A) (A) (A) (A) (A) (A) (A) (A) (A)
                 (A) (A) (A) (A) (A) (A) (A) (A) (A) (A) (A) (A)
                 (A) (A) (A) (A) (A) (A) (A) (A) (A) (A) (A) (A)
                 (A) (A) (A) (A) (A) (A) (A) (A) (A) (A) (A) (A)
                 (A) (A) (A) (A) (A) (A) (A) (A) (A) (A) (A) (A)
                 (A) (A) (A) (A) (A) (A) (A) (A) (A) (A) (A) (A)
                 (A) (A) (A) (A) (A) (A) (A) (A) (A) (A) (A) (A)
                 (A) (A) (A) (A) (A)
 The electronic state is 1-A.
 Alpha  occ. eigenvalues -- -101.56536-101.55498 -19.12444 -10.29678 -10.27495
 Alpha  occ. eigenvalues --  -10.24800 -10.23622 -10.22389 -10.21735 -10.21237
 Alpha  occ. eigenvalues --   -9.48147  -9.47111  -7.24556  -7.23564  -7.23539
 Alpha  occ. eigenvalues --   -7.23521  -7.22560  -7.22467  -1.02866  -0.90681
 Alpha  occ. eigenvalues --   -0.89064  -0.83175  -0.76259  -0.73947  -0.67827
 Alpha  occ. eigenvalues --   -0.60013  -0.56450  -0.54393  -0.52574  -0.49795
 Alpha  occ. eigenvalues --   -0.45530  -0.43673  -0.42926  -0.42172  -0.39818
 Alpha  occ. eigenvalues --   -0.39032  -0.38435  -0.37279  -0.35166  -0.33830
 Alpha  occ. eigenvalues --   -0.32497  -0.30781  -0.30687  -0.25340  -0.20641
 Alpha virt. eigenvalues --   -0.10323  -0.00276   0.02074   0.03890   0.06337
 Alpha virt. eigenvalues --    0.09175   0.12429   0.14179   0.14433   0.14870
 Alpha virt. eigenvalues --    0.16213   0.17837   0.18617   0.22587   0.27498
 Alpha virt. eigenvalues --    0.29446   0.30438   0.32001   0.34012   0.38425
 Alpha virt. eigenvalues --    0.39941   0.41943   0.42860   0.46232   0.47240
 Alpha virt. eigenvalues --    0.47992   0.50104   0.51073   0.52423   0.54171
 Alpha virt. eigenvalues --    0.54809   0.56882   0.57424   0.58906   0.59268
 Alpha virt. eigenvalues --    0.61377   0.63329   0.64604   0.66275   0.67962
 Alpha virt. eigenvalues --    0.69002   0.71881   0.73536   0.77187   0.80771
 Alpha virt. eigenvalues --    0.81895   0.82404   0.82645   0.83872   0.84176
 Alpha virt. eigenvalues --    0.85447   0.86756   0.87447   0.89036   0.91246
 Alpha virt. eigenvalues --    0.91539   0.92808   0.94352   0.94939   0.99708
 Alpha virt. eigenvalues --    1.01160   1.05466   1.06868   1.08726   1.09102
 Alpha virt. eigenvalues --    1.12809   1.15811   1.20299   1.21434   1.25722
 Alpha virt. eigenvalues --    1.28989   1.33036   1.39468   1.40354   1.42682
 Alpha virt. eigenvalues --    1.50101   1.53145   1.61852   1.64502   1.65853
 Alpha virt. eigenvalues --    1.73495   1.76631   1.80907   1.81943   1.85254
 Alpha virt. eigenvalues --    1.88646   1.90926   1.92412   1.96873   1.98317
 Alpha virt. eigenvalues --    2.00846   2.03920   2.04262   2.07383   2.10746
 Alpha virt. eigenvalues --    2.15855   2.16771   2.19806   2.25403   2.27914
 Alpha virt. eigenvalues --    2.33614   2.40024   2.42495   2.50304   2.52880
 Alpha virt. eigenvalues --    2.57242   2.59747   2.62169   2.64428   2.66441
 Alpha virt. eigenvalues --    2.76892   2.89187   2.91736   2.99014   3.02893
 Alpha virt. eigenvalues --    4.01960   4.04654   4.14036   4.28425   4.30160
 Alpha virt. eigenvalues --    4.33460   4.36066   4.42853   4.51096   4.60978
          Condensed to atoms (all electrons):
               1          2          3          4          5          6
     1  C    5.315013   0.383767  -0.051760  -0.053689   0.351229  -0.088592
     2  C    0.383767   5.110605   0.466999  -0.044329  -0.074419  -0.019542
     3  C   -0.051760   0.466999   4.822699   0.601012  -0.055868   0.004101
     4  C   -0.053689  -0.044329   0.601012   4.937998   0.372378   0.014739
     5  C    0.351229  -0.074419  -0.055868   0.372378   5.076168   0.000482
     6  O   -0.088592  -0.019542   0.004101   0.014739   0.000482   8.064305
     7  C    0.255615  -0.059762  -0.007455  -0.009103  -0.033860   0.561803
     8  C   -0.153960   0.082653  -0.007036  -0.002104   0.008977  -0.085329
     9  Cl   0.011435  -0.022483   0.001592  -0.000093   0.000330   0.002463
    10  Cl   0.007725  -0.003018   0.000238   0.000043  -0.000194   0.009486
    11  H    0.359546  -0.031833   0.005545   0.004135  -0.030726   0.001856
    12  H   -0.035273   0.357599  -0.034685   0.004983   0.004859  -0.000011
    13  H    0.004946  -0.047838   0.371167  -0.045983   0.006457   0.000060
    14  H    0.004430   0.005994  -0.037398   0.361871  -0.041317  -0.000273
    15  H   -0.031512   0.001163  -0.002571  -0.033482   0.349833   0.000997
    16  H   -0.035749   0.005405   0.002655  -0.027257   0.363473   0.012434
               7          8          9         10         11         12
     1  C    0.255615  -0.153960   0.011435   0.007725   0.359546  -0.035273
     2  C   -0.059762   0.082653  -0.022483  -0.003018  -0.031833   0.357599
     3  C   -0.007455  -0.007036   0.001592   0.000238   0.005545  -0.034685
     4  C   -0.009103  -0.002104  -0.000093   0.000043   0.004135   0.004983
     5  C   -0.033860   0.008977   0.000330  -0.000194  -0.030726   0.004859
     6  O    0.561803  -0.085329   0.002463   0.009486   0.001856  -0.000011
     7  C    4.668856   0.276985  -0.056238  -0.048839  -0.017295  -0.002767
     8  C    0.276985   5.830086   0.178329   0.192268  -0.002671  -0.007002
     9  Cl  -0.056238   0.178329  16.919512  -0.063954   0.003978   0.004990
    10  Cl  -0.048839   0.192268  -0.063954  16.851770  -0.000087   0.000446
    11  H   -0.017295  -0.002671   0.003978  -0.000087   0.536569  -0.003403
    12  H   -0.002767  -0.007002   0.004990   0.000446  -0.003403   0.518494
    13  H   -0.000232  -0.000150   0.000019   0.000009  -0.000095  -0.002129
    14  H    0.000204  -0.000012   0.000001  -0.000001  -0.000111  -0.000135
    15  H    0.004908  -0.000110  -0.000012   0.000001  -0.002844  -0.000022
    16  H   -0.004773   0.000851  -0.000043  -0.000021   0.000894  -0.000144
              13         14         15         16
     1  C    0.004946   0.004430  -0.031512  -0.035749
     2  C   -0.047838   0.005994   0.001163   0.005405
     3  C    0.371167  -0.037398  -0.002571   0.002655
     4  C   -0.045983   0.361871  -0.033482  -0.027257
     5  C    0.006457  -0.041317   0.349833   0.363473
     6  O    0.000060  -0.000273   0.000997   0.012434
     7  C   -0.000232   0.000204   0.004908  -0.004773
     8  C   -0.000150  -0.000012  -0.000110   0.000851
     9  Cl   0.000019   0.000001  -0.000012  -0.000043
    10  Cl   0.000009  -0.000001   0.000001  -0.000021
    11  H   -0.000095  -0.000111  -0.002844   0.000894
    12  H   -0.002129  -0.000135  -0.000022  -0.000144
    13  H    0.559239  -0.003227  -0.000159  -0.000112
    14  H   -0.003227   0.544794   0.000949  -0.000984
    15  H   -0.000159   0.000949   0.575493  -0.029909
    16  H   -0.000112  -0.000984  -0.029909   0.517753
 Mulliken charges:
               1
     1  C   -0.243170
     2  C   -0.110959
     3  C   -0.079236
     4  C   -0.081117
     5  C   -0.297802
     6  O   -0.478980
     7  C    0.471952
     8  C   -0.311773
     9  Cl   0.020175
    10  Cl   0.054127
    11  H    0.176542
    12  H    0.194199
    13  H    0.158026
    14  H    0.165215
    15  H    0.167275
    16  H    0.195527
 Sum of Mulliken charges =  -0.00000
 Mulliken charges with hydrogens summed into heavy atoms:
               1
     1  C   -0.066628
     2  C    0.083239
     3  C    0.078791
     4  C    0.084097
     5  C    0.065001
     6  O   -0.478980
     7  C    0.471952
     8  C   -0.311773
     9  Cl   0.020175
    10  Cl   0.054127
 APT charges:
               1
     1  C    0.028732
     2  C    0.263144
     3  C   -0.205587
     4  C    0.126969
     5  C   -0.003994
     6  O   -0.527520
     7  C    0.117644
     8  C    0.781391
     9  Cl  -0.349703
    10  Cl  -0.426273
    11  H    0.009208
    12  H    0.029364
    13  H    0.050240
    14  H    0.044868
    15  H    0.002541
    16  H    0.058975
 Sum of APT charges =   0.00000
 APT charges with hydrogens summed into heavy atoms:
               1
     1  C    0.037940
     2  C    0.292509
     3  C   -0.155347
     4  C    0.171836
     5  C    0.057522
     6  O   -0.527520
     7  C    0.117644
     8  C    0.781391
     9  Cl  -0.349703
    10  Cl  -0.426273
 Electronic spatial extent (au):  <R**2>=           1860.7737
 Charge=              0.0000 electrons
 Dipole moment (field-independent basis, Debye):
    X=             -3.6356    Y=              2.5936    Z=              1.0040  Tot=              4.5774
 Quadrupole moment (field-independent basis, Debye-Ang):
   XX=            -64.3352   YY=            -73.9153   ZZ=            -67.8292
   XY=             -0.1705   XZ=             -0.9476   YZ=             -2.3442
 Traceless Quadrupole moment (field-independent basis, Debye-Ang):
   XX=              4.3581   YY=             -5.2221   ZZ=              0.8640
   XY=             -0.1705   XZ=             -0.9476   YZ=             -2.3442
 Octapole moment (field-independent basis, Debye-Ang**2):
  XXX=            -16.0814  YYY=              6.5575  ZZZ=              3.0017  XYY=              6.2431
  XXY=            -11.3483  XXZ=             -1.3030  XZZ=             -2.5350  YZZ=              1.0542
  YYZ=              2.9965  XYZ=              3.4222
 Hexadecapole moment (field-independent basis, Debye-Ang**3):
 XXXX=          -1490.5068 YYYY=           -538.5711 ZZZZ=           -278.2561 XXXY=             25.8226
 XXXZ=              9.6373 YYYX=              1.7045 YYYZ=             -8.0544 ZZZX=             -5.6426
 ZZZY=              0.6405 XXYY=           -332.3921 XXZZ=           -301.0914 YYZZ=           -140.2077
 XXYZ=            -12.2836 YYXZ=              2.3835 ZZXY=              2.6488
 N-N= 6.811253342925D+02 E-N=-4.352629280698D+03  KE= 1.259833709578D+03
  Exact polarizability: 170.477  -0.691  89.485  -2.379   1.695  74.323
 Approx polarizability: 353.475 -11.549 168.812 -14.344  21.476 130.202
 Calling FoFJK, ICntrl=    100127 FMM=F ISym2X=0 I1Cent= 0 IOpClX= 0 NMat=1 NMatS=1 NMatT=0.
 Full mass-weighted force constant matrix:
 Low frequencies ---  -57.6978   -2.9919   -0.0032   -0.0022   -0.0019    2.5638
 Low frequencies ---    4.8736  106.9314  134.4688
 ******    1 imaginary frequencies (negative Signs) ****** 
 Diagonal vibrational polarizability:
       33.3155572      12.2809289       8.6234939
 Harmonic frequencies (cm**-1), IR intensities (KM/Mole), Raman scattering
 activities (A**4/AMU), depolarization ratios for plane and unpolarized
 incident light, reduced masses (AMU), force constants (mDyne/A),
 and normal coordinates:
                           1         2         3         4         5
                           A         A         A         A         A
       Frequencies ---   -57.6974  106.9310  134.4687  179.9540  246.5268
    Reduced masses ---    10.0492    5.2677    4.9394    7.5366    7.0655
   Force constants ---     0.0197    0.0355    0.0526    0.1438    0.2530
    IR Intensities ---     2.3137    0.9708    0.4902    5.9500    3.9590
 Coord Atom Element:
   1     1     6          0.01826   0.01878  -0.06792  -0.12132  -0.02507
   2     1     6          0.01702  -0.12243   0.00085  -0.05618  -0.08654
   3     1     6          0.05996  -0.07497  -0.12987   0.09211  -0.09251
   1     2     6         -0.24564   0.07927  -0.03210  -0.20811   0.16113
   2     2     6          0.12021   0.00616   0.18222  -0.02305  -0.24191
   3     2     6          0.03852  -0.08451  -0.14180   0.08991  -0.08613
   1     3     6         -0.26638  -0.03844   0.11494  -0.26050   0.10000
   2     3     6          0.12400   0.20847   0.11687   0.01721  -0.19364
   3     3     6         -0.05477   0.04310  -0.00084   0.07887  -0.07454
   1     4     6         -0.06358  -0.15792   0.17531  -0.22576  -0.17202
   2     4     6         -0.01332   0.23161  -0.15511  -0.01131   0.14439
   3     4     6         -0.16531   0.13641   0.07702   0.06649  -0.00615
   1     5     6          0.07650  -0.02907  -0.02002  -0.07115  -0.09795
   2     5     6         -0.01541  -0.07205  -0.19457  -0.17548   0.05267
   3     5     6         -0.12161   0.02079   0.00338   0.02669  -0.03231
   1     6     8         -0.11070   0.11626  -0.00348   0.22737   0.02515
   2     6     8         -0.04235  -0.11259   0.03280   0.07365  -0.12474
   3     6     8          0.40573  -0.13746   0.05919  -0.13689   0.29438
   1     7     6          0.01265   0.02950  -0.01163   0.03947  -0.02906
   2     7     6         -0.03944  -0.10713   0.06049   0.09988  -0.04527
   3     7     6          0.26342  -0.06306  -0.03465   0.01321  -0.01294
   1     8     6          0.11779  -0.01167  -0.01653   0.04582   0.00149
   2     8     6         -0.04755  -0.05346   0.04830   0.10308   0.10270
   3     8     6         -0.03778   0.02635  -0.04628   0.05193  -0.12838
   1     9    17          0.00311  -0.09484   0.06473   0.25018   0.13339
   2     9    17         -0.00466  -0.00193   0.02427   0.00866   0.08696
   3     9    17          0.06316   0.13246   0.14074  -0.07264   0.06659
   1    10    17          0.17290   0.08636  -0.11714  -0.04760  -0.11826
   2    10    17         -0.02649   0.01255  -0.04877  -0.01538   0.06702
   3    10    17         -0.22833  -0.07114  -0.06799  -0.01799  -0.04452
   1    11     1          0.13209   0.01210  -0.16470  -0.21009   0.00868
   2    11     1         -0.03567  -0.16907  -0.04192  -0.00150  -0.07005
   3    11     1          0.03979  -0.15306  -0.24972   0.12212  -0.04852
   1    12     1         -0.16862   0.10641  -0.05868  -0.22972   0.18085
   2    12     1         -0.00122   0.04360   0.29679  -0.00152  -0.26535
   3    12     1          0.09401  -0.16246  -0.24465   0.09417  -0.08612
   1    13     1         -0.40545  -0.06399   0.20795  -0.35694   0.17954
   2    13     1          0.16885   0.37650   0.21704   0.11096  -0.29697
   3    13     1         -0.05636   0.08227   0.03172   0.09397  -0.09325
   1    14     1         -0.01136  -0.29713   0.32971  -0.28530  -0.37468
   2    14     1         -0.08720   0.40754  -0.31097   0.05558   0.37895
   3    14     1         -0.26177   0.25761   0.18094   0.07354   0.04034
   1    15     1          0.09548   0.04806  -0.13902  -0.08577  -0.00953
   2    15     1         -0.01713  -0.06753  -0.29705  -0.25516   0.10464
   3    15     1         -0.19185  -0.19580   0.02508  -0.19296  -0.12165
   1    16     1          0.18003  -0.05194   0.00690   0.07421  -0.17704
   2    16     1         -0.00707  -0.25817  -0.23745  -0.29831  -0.02806
   3    16     1         -0.12284   0.17639   0.04375   0.13483   0.02647
                           6         7         8         9        10
                           A         A         A         A         A
       Frequencies ---   256.3122  328.4078  370.1775  394.1086  449.1547
    Reduced masses ---    12.0092   10.1266    3.5658    3.7643    9.2880
   Force constants ---     0.4648    0.6435    0.2879    0.3445    1.1040
    IR Intensities ---     0.1164    5.7124   14.3708    1.9000    9.9007
 Coord Atom Element:
   1     1     6         -0.18017   0.01080   0.08485  -0.08245   0.11325
   2     1     6          0.02014  -0.01137   0.00240   0.08278  -0.19508
   3     1     6         -0.08969  -0.05490   0.07406  -0.04565  -0.00924
   1     2     6         -0.10356   0.04046   0.09604   0.04286   0.06957
   2     2     6          0.03419   0.05738  -0.07385  -0.03797  -0.10611
   3     2     6         -0.10861  -0.05512   0.10073  -0.06685   0.00296
   1     3     6         -0.00003   0.08689  -0.02953   0.10537  -0.11094
   2     3     6         -0.02004  -0.05934   0.04312  -0.11339   0.10429
   3     3     6         -0.01814  -0.07152   0.04547  -0.04249   0.02693
   1     4     6         -0.06042   0.04667   0.04599  -0.09319   0.05723
   2     4     6         -0.06811  -0.00554   0.03523   0.08558  -0.09209
   3     4     6          0.04755  -0.04274  -0.01325   0.03453  -0.01577
   1     5     6         -0.24705  -0.02537   0.20889  -0.01015   0.04649
   2     5     6          0.03736   0.07129  -0.14464  -0.13572  -0.03106
   3     5     6          0.04595  -0.03163  -0.05475  -0.05679   0.01478
   1     6     8         -0.32095   0.12558  -0.13042  -0.13992  -0.36005
   2     6     8          0.01230  -0.05002   0.02427   0.17232  -0.09256
   3     6     8         -0.09070   0.02634  -0.02600   0.02423  -0.14136
   1     7     6         -0.13623  -0.06763  -0.04540   0.00700  -0.06432
   2     7     6         -0.03152  -0.04205   0.00476   0.10596  -0.19889
   3     7     6         -0.12592   0.12276  -0.01535   0.02564  -0.02769
   1     8     6         -0.04895  -0.30477  -0.05675   0.00054  -0.10064
   2     8     6         -0.09005   0.05766  -0.00413   0.00394  -0.01587
   3     8     6         -0.17792   0.65349  -0.06145   0.16572   0.24909
   1     9    17          0.19977   0.04783   0.01288  -0.01796   0.13875
   2     9    17         -0.19647  -0.15658  -0.07218   0.02989   0.27903
   3     9    17          0.09905  -0.03485   0.01096  -0.01878  -0.01707
   1    10    17          0.23609  -0.03244  -0.07679   0.09139   0.02411
   2    10    17          0.22902   0.14530   0.12468  -0.08827  -0.06119
   3    10    17          0.08789  -0.14597  -0.02439   0.01200  -0.00506
   1    11     1         -0.21733   0.11660   0.07507  -0.16128   0.20181
   2    11     1          0.01709  -0.09630   0.03655   0.11123  -0.23171
   3    11     1         -0.11723  -0.12780   0.12259  -0.04140  -0.01710
   1    12     1         -0.04378  -0.21770   0.12079   0.02085   0.01053
   2    12     1          0.02041   0.32713  -0.12015  -0.01742  -0.01236
   3    12     1         -0.15992  -0.07309   0.12681  -0.06811  -0.03982
   1    13     1          0.13220   0.14722  -0.16729   0.22174  -0.29200
   2    13     1         -0.04465  -0.11846   0.09929  -0.19637   0.31685
   3    13     1         -0.01273  -0.08127   0.04764  -0.05334   0.06338
   1    14     1          0.01026   0.07054  -0.01147  -0.20709   0.06151
   2    14     1         -0.13800  -0.03087   0.09530   0.22526  -0.09917
   3    14     1          0.10336  -0.04284  -0.03356   0.11658  -0.02961
   1    15     1         -0.25833   0.01897   0.12572  -0.08314   0.14105
   2    15     1          0.09364   0.14528  -0.33429  -0.32489   0.14794
   3    15     1          0.25880   0.08741  -0.41426  -0.44626   0.30753
   1    16     1         -0.40787  -0.12723   0.52378   0.23920  -0.18623
   2    16     1          0.13236   0.14819  -0.35104  -0.40232   0.15688
   3    16     1         -0.03738  -0.10210   0.13101   0.17523  -0.14304
                          11        12        13        14        15
                           A         A         A         A         A
       Frequencies ---   535.6187  615.0098  639.6856  741.5848  759.9646
    Reduced masses ---     3.4475    4.4446    3.1911    2.2475    2.2753
   Force constants ---     0.5827    0.9905    0.7694    0.7282    0.7742
    IR Intensities ---     5.5521   20.5984    9.7691   38.6448    5.2789
 Coord Atom Element:
   1     1     6          0.01866   0.14554  -0.11652   0.04159  -0.03262
   2     1     6          0.00372  -0.20881   0.06634   0.07586   0.20860
   3     1     6          0.06693  -0.06533   0.02660  -0.04123   0.02366
   1     2     6         -0.16669  -0.06095   0.10127  -0.10255   0.01150
   2     2     6          0.22959   0.00726  -0.03303   0.00140   0.00993
   3     2     6          0.05061  -0.09534  -0.01205  -0.08973  -0.09130
   1     3     6          0.13577   0.04962   0.00045  -0.05786   0.01481
   2     3     6         -0.15292  -0.06827   0.09080   0.01551  -0.03228
   3     3     6          0.00468  -0.02945  -0.03761   0.02915  -0.09417
   1     4     6         -0.02858  -0.06568   0.03635  -0.06838  -0.03487
   2     4     6          0.10823  -0.01751   0.00595   0.00707  -0.11588
   3     4     6          0.00969   0.03940  -0.03101   0.05723   0.01220
   1     5     6          0.05369   0.03993  -0.09772   0.02334   0.07867
   2     5     6          0.02620  -0.05017   0.01455   0.03736  -0.02066
   3     5     6         -0.01847   0.03687  -0.05816   0.06877   0.10708
   1     6     8         -0.02333  -0.07535   0.04920  -0.04327   0.00278
   2     6     8         -0.13314   0.16985  -0.03412  -0.01427  -0.05860
   3     6     8         -0.08815  -0.09154  -0.10447   0.00082  -0.02393
   1     7     6         -0.04671   0.06890  -0.12954   0.17331   0.02712
   2     7     6         -0.13328   0.04569  -0.04568  -0.06817  -0.07406
   3     7     6          0.06201   0.30348   0.31553  -0.05458   0.05531
   1     8     6         -0.01763   0.16946   0.00790   0.08118   0.01069
   2     8     6         -0.03639   0.01116  -0.02566  -0.05347  -0.04664
   3     8     6         -0.06295  -0.04026  -0.04200   0.08192   0.00166
   1     9    17          0.02999  -0.02303   0.01694  -0.00105   0.00629
   2     9    17          0.04883  -0.03929   0.02296   0.00179   0.01106
   3     9    17          0.00372  -0.00144  -0.00288  -0.00458  -0.00106
   1    10    17         -0.01256  -0.05684   0.00086  -0.04158  -0.01429
   2    10    17          0.00412   0.04620  -0.00057   0.03347   0.01139
   3    10    17          0.00404  -0.00870   0.00587  -0.01113  -0.00240
   1    11     1          0.13249   0.17822   0.07164   0.01399  -0.04990
   2    11     1         -0.10726  -0.30141  -0.06154   0.09973   0.17375
   3    11     1         -0.04173  -0.19306  -0.06697  -0.02163  -0.03620
   1    12     1         -0.33157  -0.08313   0.51663   0.35229  -0.02299
   2    12     1          0.37974   0.03626  -0.44571  -0.51590  -0.06785
   3    12     1          0.07553  -0.10496  -0.02002  -0.01959   0.03777
   1    13     1          0.30855   0.07501   0.15418   0.35378  -0.15688
   2    13     1         -0.40898   0.07103  -0.11906  -0.27476   0.42331
   3    13     1         -0.04346   0.00613  -0.07637  -0.00545  -0.00001
   1    14     1         -0.03160  -0.26070   0.29474   0.26127  -0.51764
   2    14     1          0.10679   0.21168  -0.27860  -0.39092   0.44374
   3    14     1         -0.01918   0.09843  -0.00703  -0.10259   0.10120
   1    15     1          0.07570   0.27625  -0.19488   0.03860  -0.10863
   2    15     1         -0.05637   0.26548  -0.12647  -0.00735  -0.13810
   3    15     1         -0.33561   0.33266  -0.21757  -0.11407   0.26795
   1    16     1          0.22486  -0.34775   0.11451   0.06682   0.19285
   2    16     1         -0.17595   0.12338  -0.07650  -0.09284   0.16137
   3    16     1          0.15483  -0.11289   0.02169   0.18180  -0.04304
                          16        17        18        19        20
                           A         A         A         A         A
       Frequencies ---   809.1414  830.0323  846.5185  909.1328  939.4398
    Reduced masses ---     6.1689    3.8041    1.4871    9.0586    2.0919
   Force constants ---     2.3796    1.5442    0.6278    4.4113    1.0878
    IR Intensities ---    28.4940    7.4163   29.9229  128.6047   12.6574
 Coord Atom Element:
   1     1     6          0.00778   0.13616  -0.00061  -0.13768   0.16979
   2     1     6          0.06132  -0.01627   0.04937  -0.04391   0.04075
   3     1     6         -0.23211  -0.01696   0.01216   0.08819  -0.07479
   1     2     6         -0.22293   0.08160   0.07838  -0.02319  -0.01963
   2     2     6         -0.17509   0.08018  -0.10456   0.03092   0.01606
   3     2     6         -0.18211  -0.00303  -0.07509  -0.03369   0.04175
   1     3     6         -0.06417  -0.06604  -0.04892  -0.00121   0.02936
   2     3     6         -0.09094   0.03109   0.01197   0.02394  -0.04614
   3     3     6          0.28850  -0.17152   0.00412  -0.00933   0.00972
   1     4     6          0.12925  -0.20443  -0.04375   0.06498  -0.03715
   2     4     6          0.05288  -0.08237  -0.00748   0.02754  -0.10117
   3     4     6          0.09861   0.02288   0.03027  -0.05493   0.08095
   1     5     6          0.23164   0.11513  -0.00402   0.05741  -0.13234
   2     5     6          0.10711  -0.02406   0.05242   0.01388   0.08036
   3     5     6          0.00237   0.20523   0.03097   0.04893  -0.08395
   1     6     8          0.06759   0.03921  -0.01549  -0.12007  -0.00872
   2     6     8         -0.00616   0.01820  -0.00537  -0.08944  -0.00641
   3     6     8         -0.00518   0.02062  -0.01487  -0.06343  -0.00321
   1     7     6         -0.20391  -0.18086   0.02703   0.16616  -0.00811
   2     7     6          0.07085   0.08453  -0.03673  -0.17054  -0.00299
   3     7     6          0.08170  -0.02712   0.05064   0.01901  -0.00439
   1     8     6         -0.17413  -0.14390   0.04675  -0.00266  -0.00115
   2     8     6          0.05131   0.07247   0.03132   0.73654   0.08325
   3     8     6         -0.06301  -0.06190  -0.01980  -0.02302  -0.00317
   1     9    17          0.01081   0.00370  -0.00389  -0.03053  -0.00457
   2     9    17          0.00706   0.00015  -0.00685  -0.09544  -0.00955
   3     9    17         -0.00032   0.00262   0.00092   0.01331   0.00088
   1    10    17          0.04694   0.04068  -0.00468   0.03750   0.00592
   2    10    17         -0.03629  -0.03294   0.00062  -0.06813  -0.00833
   3    10    17          0.01176   0.01082  -0.00095   0.00795   0.00050
   1    11     1          0.17347   0.07299   0.04564  -0.17934   0.48416
   2    11     1          0.09752  -0.19717   0.10731  -0.13007  -0.02410
   3    11     1         -0.08861  -0.33199   0.12892  -0.06301  -0.01932
   1    12     1         -0.01793   0.07362  -0.54265   0.27568  -0.05225
   2    12     1         -0.26056  -0.09465   0.61168  -0.28059  -0.17611
   3    12     1         -0.33331   0.21350  -0.18572  -0.02426   0.31354
   1    13     1          0.05891   0.31340   0.03700   0.04025  -0.15682
   2    13     1          0.11793  -0.25639   0.01575  -0.10622   0.42866
   3    13     1          0.35053  -0.20787   0.01379  -0.04105   0.11347
   1    14     1         -0.04139   0.07727   0.21960  -0.08308  -0.03159
   2    14     1          0.18133  -0.41732  -0.32457   0.19313  -0.08936
   3    14     1         -0.29564  -0.09606  -0.08191  -0.10251   0.25712
   1    15     1          0.15994   0.27220  -0.00753  -0.00164  -0.26454
   2    15     1          0.04577   0.07417  -0.01302  -0.02586  -0.13086
   3    15     1          0.03855   0.06765  -0.15654   0.08553  -0.34403
   1    16     1          0.12061   0.15186   0.13776   0.13771   0.10329
   2    16     1          0.00760   0.00700  -0.05178   0.08174  -0.12115
   3    16     1          0.08587   0.18515   0.12224  -0.00419   0.08567
                          21        22        23        24        25
                           A         A         A         A         A
       Frequencies ---   958.2832  970.1153  990.0254 1041.6027 1100.1850
    Reduced masses ---     1.8910    1.4861    2.0491    1.9656    1.3458
   Force constants ---     1.0231    0.8241    1.1833    1.2564    0.9597
    IR Intensities ---     1.0660    6.1695    8.3462   60.0527    2.7161
 Coord Atom Element:
   1     1     6         -0.05793  -0.04663  -0.04374   0.10465  -0.03620
   2     1     6         -0.05545  -0.05610  -0.14489  -0.00437  -0.02357
   3     1     6          0.13934   0.01180   0.05707   0.11360  -0.04380
   1     2     6         -0.04210  -0.02242  -0.01160  -0.10001  -0.05650
   2     2     6         -0.00599   0.01414   0.00114  -0.06292  -0.08739
   3     2     6         -0.06946  -0.01734  -0.05339  -0.08327   0.04448
   1     3     6          0.08144   0.08121  -0.03465   0.03968   0.04316
   2     3     6          0.01129  -0.08609   0.05122   0.05663   0.07312
   3     3     6         -0.02070  -0.04599  -0.01460  -0.09069  -0.05696
   1     4     6         -0.09730  -0.00341   0.08099   0.05819   0.03965
   2     4     6         -0.05260   0.07422  -0.11498   0.06618   0.00934
   3     4     6          0.07808  -0.04826  -0.03761  -0.05194  -0.00674
   1     5     6          0.06109   0.00133  -0.03464  -0.05928   0.01561
   2     5     6          0.03107   0.03666   0.16057  -0.07136   0.02682
   3     5     6         -0.12100   0.10530   0.08402   0.05703   0.00876
   1     6     8          0.00872   0.00078   0.00458   0.01228  -0.00296
   2     6     8          0.00749   0.01227   0.03776   0.00553  -0.01240
   3     6     8          0.01025   0.00233   0.01248   0.00313  -0.00491
   1     7     6         -0.01250   0.00210   0.00189  -0.01632  -0.00276
   2     7     6          0.01421   0.00768   0.03058   0.01471   0.00022
   3     7     6         -0.02569  -0.00066  -0.03093   0.00268   0.01426
   1     8     6         -0.03932   0.00323   0.01422  -0.07343   0.01882
   2     8     6         -0.00275  -0.01666  -0.04153   0.01276  -0.00594
   3     8     6         -0.00443   0.00764   0.01384  -0.02129   0.00823
   1     9    17          0.00148   0.00078  -0.00024   0.00193   0.00184
   2     9    17          0.00168   0.00135   0.00297   0.00114   0.00108
   3     9    17          0.00002  -0.00035  -0.00039  -0.00068  -0.00104
   1    10    17          0.00370  -0.00110  -0.00231   0.00670  -0.00125
   2    10    17         -0.00265   0.00185   0.00430  -0.00558   0.00142
   3    10    17          0.00191  -0.00005  -0.00061   0.00250  -0.00087
   1    11     1         -0.02291  -0.13517   0.10250   0.34035  -0.37413
   2    11     1          0.05196  -0.07204  -0.24401   0.24187   0.04621
   3    11     1          0.33067  -0.05260  -0.00721   0.62553  -0.11271
   1    12     1          0.15207   0.09930   0.07782  -0.08499  -0.42790
   2    12     1         -0.08067  -0.10423   0.03148  -0.11363  -0.18600
   3    12     1         -0.22371  -0.02694  -0.20198  -0.06539   0.58414
   1    13     1          0.19770  -0.49628   0.19716   0.23313   0.38899
   2    13     1          0.35627   0.58204  -0.11801   0.05654   0.21993
   3    13     1          0.07370   0.06228  -0.03660  -0.08551   0.00330
   1    14     1          0.07604   0.26667  -0.33864   0.03998   0.02916
   2    14     1         -0.21650  -0.26350   0.35772   0.09767   0.04478
   3    14     1          0.31657  -0.29597  -0.04723  -0.05329   0.09732
   1    15     1          0.31555   0.02297  -0.15552  -0.16961   0.13615
   2    15     1          0.25738  -0.00936  -0.11067  -0.13684   0.10133
   3    15     1         -0.13215  -0.10475  -0.38424   0.16603  -0.10398
   1    16     1          0.23305   0.05775   0.46029  -0.29916   0.01530
   2    16     1          0.26327  -0.12711  -0.07882  -0.21782  -0.02787
   3    16     1         -0.31038   0.24641   0.29465   0.17960   0.05450
                          26        27        28        29        30
                           A         A         A         A         A
       Frequencies ---  1133.0835 1156.4179 1205.9714 1243.1388 1300.3081
    Reduced masses ---     1.1716    1.2674    1.4108    4.4151    2.2940
   Force constants ---     0.8862    0.9986    1.2089    4.0201    2.2852
    IR Intensities ---     6.4722   10.9737   22.2596  123.7140   12.5885
 Coord Atom Element:
   1     1     6          0.02328  -0.05616  -0.03762  -0.07881   0.18374
   2     1     6         -0.00651   0.00979   0.08377   0.06764   0.05505
   3     1     6         -0.03435   0.05417   0.07655   0.01722   0.11900
   1     2     6         -0.03157  -0.03402   0.01839  -0.03561  -0.03185
   2     2     6         -0.01181  -0.05381  -0.01250  -0.02380  -0.03340
   3     2     6         -0.01791  -0.03435  -0.02738   0.00630  -0.07865
   1     3     6         -0.02255  -0.00311  -0.02380   0.00246  -0.02238
   2     3     6         -0.00741  -0.00230  -0.00875   0.00474  -0.02993
   3     3     6         -0.06398  -0.02813   0.01444  -0.05006   0.06518
   1     4     6          0.05745   0.01958   0.04652   0.03418   0.04617
   2     4     6          0.01298   0.08164  -0.03755  -0.01404   0.05239
   3     4     6          0.02679   0.01781  -0.00712   0.01230  -0.06944
   1     5     6          0.00762   0.02524  -0.03461   0.04811  -0.15608
   2     5     6          0.02806  -0.01252  -0.02687  -0.02885  -0.08198
   3     5     6          0.03644   0.00354  -0.00778   0.01521   0.03850
   1     6     8          0.00033   0.00408   0.00723  -0.01486  -0.00082
   2     6     8         -0.00600   0.02927   0.02945  -0.10758  -0.03182
   3     6     8         -0.00322   0.01112   0.00688  -0.01434  -0.00188
   1     7     6         -0.00156   0.01905   0.06763  -0.28794  -0.06835
   2     7     6         -0.00138   0.00104  -0.02440   0.08897   0.03072
   3     7     6          0.01843  -0.03464  -0.00188  -0.11994  -0.01584
   1     8     6         -0.01443  -0.00500  -0.08257   0.37598   0.04367
   2     8     6          0.00165  -0.01598  -0.01385   0.06517   0.01663
   3     8     6         -0.00499  -0.00220  -0.03273   0.13985   0.01905
   1     9    17          0.00100   0.00041   0.00323  -0.01600  -0.00190
   2     9    17          0.00075   0.00080   0.00322  -0.01650  -0.00202
   3     9    17         -0.00014  -0.00032  -0.00012   0.00115   0.00005
   1    10    17          0.00152  -0.00112   0.00214  -0.01580  -0.00093
   2    10    17         -0.00123   0.00140  -0.00202   0.01169   0.00052
   3    10    17          0.00006   0.00054   0.00145  -0.00288  -0.00017
   1    11     1         -0.19576   0.46086   0.24623   0.53775  -0.51499
   2    11     1          0.16505  -0.43734  -0.25925  -0.11312  -0.07450
   3    11     1          0.11085  -0.34782  -0.29636   0.06366  -0.45751
   1    12     1          0.01447  -0.19025  -0.03831   0.06224   0.01554
   2    12     1         -0.02989  -0.06800  -0.01514  -0.01288  -0.00818
   3    12     1         -0.05719   0.14990   0.04054  -0.14034  -0.17764
   1    13     1         -0.48026  -0.07125  -0.03928  -0.01024   0.10265
   2    13     1         -0.31345  -0.06759   0.04015   0.02807   0.07550
   3    13     1         -0.18592  -0.05669   0.02536  -0.05200   0.10506
   1    14     1          0.14247   0.19404  -0.05461  -0.01059   0.05613
   2    14     1          0.03233  -0.06403   0.07995   0.05658   0.06416
   3    14     1          0.67643   0.26543   0.00879   0.07097   0.03081
   1    15     1          0.15207  -0.24652   0.50834   0.36351   0.12045
   2    15     1          0.10605  -0.18544   0.38629   0.22854   0.11958
   3    15     1         -0.11345   0.24377  -0.28408  -0.07330  -0.14860
   1    16     1          0.05713   0.22292  -0.37498  -0.29850   0.39197
   2    16     1         -0.03396   0.18785  -0.26313  -0.21633   0.26759
   3    16     1          0.09420  -0.15556   0.18252   0.17020  -0.24457
                          31        32        33        34        35
                           A         A         A         A         A
       Frequencies ---  1315.8211 1376.1576 1440.9771 1474.7606 1563.7078
    Reduced masses ---     1.3156    2.1386    2.2306    1.1523    4.0895
   Force constants ---     1.3420    2.3862    2.7289    1.4766    5.8915
    IR Intensities ---     2.7605    6.8744   29.6029    9.5190   39.3721
 Coord Atom Element:
   1     1     6          0.03757  -0.04272   0.04285   0.00656   0.00836
   2     1     6          0.02048   0.03168   0.04408   0.01114  -0.00691
   3     1     6          0.04600  -0.14323   0.01978  -0.00957  -0.01170
   1     2     6         -0.02779  -0.05809  -0.11751  -0.02065  -0.01528
   2     2     6         -0.03705  -0.05566  -0.12254  -0.02178  -0.00235
   3     2     6          0.06607   0.17514   0.08197   0.03283   0.10417
   1     3     6         -0.03025   0.02501   0.18227   0.01904  -0.19734
   2     3     6         -0.02617   0.01391   0.15194   0.01737  -0.12319
   3     3     6         -0.02543  -0.00887  -0.04377  -0.02535  -0.26113
   1     4     6         -0.02029  -0.01872  -0.04532  -0.00471   0.18451
   2     4     6         -0.00654   0.01644  -0.05345  -0.00393   0.08846
   3     4     6         -0.04882  -0.12015   0.08620   0.02732   0.31749
   1     5     6          0.07516  -0.05076   0.01352  -0.05107  -0.03026
   2     5     6          0.06886  -0.06934   0.01273   0.00489  -0.01669
   3     5     6         -0.04484   0.12231  -0.00550  -0.07455  -0.02777
   1     6     8         -0.00080  -0.00431  -0.00272  -0.00313   0.00207
   2     6     8         -0.00395   0.00012  -0.01039  -0.01170   0.02168
   3     6     8         -0.00073  -0.00321  -0.00333  -0.00214   0.00437
   1     7     6          0.00140   0.05304   0.01212   0.01384   0.01032
   2     7     6          0.00167  -0.00807   0.00814   0.01264  -0.03308
   3     7     6          0.00041   0.01375   0.00350   0.00413  -0.00190
   1     8     6         -0.00380  -0.02935  -0.01223  -0.00704  -0.00823
   2     8     6          0.00324   0.00126   0.00588   0.00047  -0.00178
   3     8     6         -0.00028  -0.01027   0.00106  -0.00085  -0.01076
   1     9    17          0.00012   0.00071   0.00065   0.00022   0.00039
   2     9    17         -0.00015   0.00032   0.00013   0.00018   0.00062
   3     9    17          0.00010  -0.00019  -0.00045  -0.00024   0.00028
   1    10    17          0.00030   0.00048   0.00036   0.00027   0.00005
   2    10    17         -0.00034  -0.00075  -0.00053  -0.00025  -0.00029
   3    10    17         -0.00002  -0.00001   0.00000  -0.00002   0.00005
   1    11     1         -0.25594   0.40819  -0.09412  -0.01091  -0.07734
   2    11     1         -0.10730   0.03944  -0.11141  -0.00739   0.01574
   3    11     1         -0.30524   0.09115  -0.29498  -0.05537  -0.02753
   1    12     1          0.15978   0.18792   0.01021   0.03356   0.19384
   2    12     1          0.14384   0.21201   0.06589   0.03330   0.12123
   3    12     1         -0.36787  -0.41646  -0.33011  -0.09677  -0.27477
   1    13     1          0.26931   0.30014  -0.41632  -0.03089   0.28709
   2    13     1          0.22432   0.21309  -0.31573  -0.02363   0.28268
   3    13     1          0.06042   0.06218  -0.22546  -0.04348  -0.16715
   1    14     1          0.06353   0.04541  -0.15188  -0.03360   0.06715
   2    14     1         -0.03645   0.01222  -0.03109   0.00229   0.15987
   3    14     1          0.36911   0.26055  -0.43012  -0.10554  -0.47868
   1    15     1         -0.26575   0.24331  -0.07133   0.10635   0.03762
   2    15     1         -0.19014   0.12246  -0.11597   0.32623  -0.00760
   3    15     1          0.12450  -0.14691  -0.23506   0.59760  -0.19930
   1    16     1         -0.35385   0.28994  -0.16989   0.49240   0.01409
   2    16     1         -0.24605   0.24436   0.12977  -0.39010   0.21001
   3    16     1          0.21008  -0.13393  -0.12140   0.29478  -0.22386
                          36        37        38        39        40
                           A         A         A         A         A
       Frequencies ---  1702.2667 3032.2722 3141.0664 3163.8113 3227.7959
    Reduced masses ---    11.8479    1.0718    1.0906    1.0885    1.0880
   Force constants ---    20.2277    5.8062    6.3398    6.4194    6.6787
    IR Intensities ---   176.2964   18.3278    2.4149    4.1058    2.2711
 Coord Atom Element:
   1     1     6         -0.03763   0.00064  -0.00043  -0.02454   0.00054
   2     1     6         -0.02659   0.00151  -0.00150  -0.06805   0.00084
   3     1     6          0.02136  -0.00203   0.00086   0.04564  -0.00033
   1     2     6          0.04914   0.00028   0.00020   0.00216   0.00299
   2     2     6          0.01372   0.00048  -0.00024   0.00168   0.00301
   3     2     6         -0.03383  -0.00034   0.00032  -0.00004   0.00396
   1     3     6         -0.04889  -0.00089   0.00029   0.00023   0.00620
   2     3     6         -0.03669  -0.00066  -0.00016  -0.00007   0.01339
   3     3     6         -0.02214  -0.00006   0.00016  -0.00015  -0.05027
   1     4     6          0.00939  -0.00024   0.00232  -0.00018  -0.04991
   2     4     6          0.01394  -0.00123   0.00143  -0.00023  -0.04421
   3     4     6          0.04174   0.00080   0.00004  -0.00024   0.00765
   1     5     6          0.00965   0.05273   0.01051   0.00262   0.00023
   2     5     6          0.00814  -0.04681  -0.06226   0.00052  -0.00068
   3     5     6          0.00697   0.02890  -0.05941   0.00247  -0.00291
   1     6     8         -0.15159   0.00007   0.00071  -0.00002  -0.00009
   2     6     8         -0.47308   0.00013   0.00045   0.00040  -0.00003
   3     6     8         -0.08828   0.00005   0.00031   0.00019  -0.00001
   1     7     6          0.30099  -0.00072  -0.00047  -0.00002   0.00041
   2     7     6          0.71163  -0.00010  -0.00133  -0.00026   0.00002
   3     7     6          0.13477  -0.00030  -0.00027  -0.00003   0.00010
   1     8     6         -0.09808  -0.00007   0.00001  -0.00035  -0.00030
   2     8     6         -0.03394   0.00005   0.00003  -0.00044   0.00003
   3     8     6         -0.00383   0.00018  -0.00002  -0.00003  -0.00007
   1     9    17         -0.00141   0.00002  -0.00000  -0.00007   0.00002
   2     9    17         -0.00114   0.00002   0.00001   0.00011   0.00002
   3     9    17         -0.00474   0.00000   0.00001  -0.00007  -0.00001
   1    10    17          0.00778   0.00002  -0.00002   0.00002   0.00001
   2    10    17         -0.00417  -0.00001   0.00002   0.00000  -0.00002
   3    10    17          0.00019  -0.00001  -0.00000   0.00003   0.00000
   1    11     1          0.16903  -0.00767   0.00501   0.27762  -0.00264
   2    11     1         -0.13205  -0.02591   0.01900   0.80053  -0.00670
   3    11     1         -0.03538   0.02055  -0.01273  -0.52117   0.00447
   1    12     1         -0.03889  -0.00069   0.00217  -0.02392  -0.04464
   2    12     1          0.03113  -0.00101   0.00248  -0.02267  -0.04402
   3    12     1          0.06487  -0.00020   0.00216  -0.01656  -0.04041
   1    13     1          0.01584   0.00112   0.00043   0.00031  -0.05484
   2    13     1          0.03243   0.00034  -0.00056   0.00085  -0.14746
   3    13     1         -0.00529  -0.00416   0.00178  -0.00189   0.59704
   1    14     1          0.02111   0.01005  -0.02736   0.00835   0.57763
   2    14     1         -0.00138   0.00743  -0.02140   0.00682   0.51395
   3    14     1         -0.02080   0.00253   0.00155  -0.00145  -0.08551
   1    15     1         -0.05515  -0.64038  -0.11516  -0.02081   0.00054
   2    15     1         -0.07421   0.70908   0.11847   0.01916  -0.00246
   3    15     1         -0.12156  -0.20727  -0.04902  -0.00666   0.00129
   1    16     1         -0.12507   0.01917  -0.02366  -0.00034  -0.00141
   2    16     1          0.09447  -0.13553   0.63620  -0.01890   0.01553
   3    16     1         -0.05020  -0.13520   0.74544  -0.02105   0.02207
                          41        42
                           A         A
       Frequencies ---  3246.2049 3281.2099
    Reduced masses ---     1.1002    1.0952
   Force constants ---     6.8307    6.9473
    IR Intensities ---    10.7672    3.1949
 Coord Atom Element:
   1     1     6         -0.00070  -0.00069
   2     1     6         -0.00030  -0.00233
   3     1     6          0.00022   0.00400
   1     2     6          0.00616  -0.05297
   2     2     6          0.00684  -0.05341
   3     2     6          0.00827  -0.04410
   1     3     6          0.00298   0.00360
   2     3     6          0.01391   0.00553
   3     3     6         -0.06879  -0.01597
   1     4     6          0.04345   0.00355
   2     4     6          0.03759   0.00297
   3     4     6         -0.00140   0.00068
   1     5     6          0.00007   0.00051
   2     5     6          0.00011   0.00031
   3     5     6          0.00314   0.00096
   1     6     8         -0.00006   0.00022
   2     6     8         -0.00017   0.00019
   3     6     8         -0.00005   0.00012
   1     7     6          0.00008  -0.00105
   2     7     6          0.00013   0.00019
   3     7     6          0.00018  -0.00035
   1     8     6         -0.00007   0.00023
   2     8     6         -0.00001   0.00015
   3     8     6         -0.00008   0.00060
   1     9    17          0.00003  -0.00008
   2     9    17         -0.00001   0.00004
   3     9    17         -0.00001   0.00003
   1    10    17          0.00002  -0.00000
   2    10    17         -0.00002   0.00001
   3    10    17         -0.00000   0.00001
   1    11     1          0.00089   0.00947
   2    11     1          0.00044   0.02626
   3    11     1         -0.00032  -0.02111
   1    12     1         -0.09433   0.59537
   2    12     1         -0.09531   0.59285
   3    12     1         -0.08445   0.50583
   1    13     1         -0.06321  -0.01694
   2    13     1         -0.17875  -0.04130
   3    13     1          0.73973   0.15974
   1    14     1         -0.46031  -0.02865
   2    14     1         -0.40839  -0.02546
   3    14     1          0.06392   0.00358
   1    15     1         -0.00336  -0.00193
   2    15     1          0.00463   0.00130
   3    15     1         -0.00211  -0.00111
   1    16     1          0.00078  -0.00039
   2    16     1         -0.01294  -0.00339
   3    16     1         -0.01936  -0.00512
 Harmonic frequencies (cm**-1), IR intensities (KM/Mole), Raman scattering
 activities (A**4/AMU), depolarization ratios for plane and unpolarized
 incident light, reduced masses (AMU), force constants (mDyne/A),
 and normal coordinates:
                      1                      2                      3
                      A                      A                      A
 Frequencies --    -57.6974               106.9310               134.4687
 Red. masses --     10.0492                 5.2677                 4.9394
 Frc consts  --      0.0197                 0.0355                 0.0526
 IR Inten    --      2.3137                 0.9708                 0.4902
  Atom  AN      X      Y      Z        X      Y      Z        X      Y      Z
     1   6     0.02   0.02   0.06     0.02  -0.12  -0.07    -0.07   0.00  -0.13
     2   6    -0.25   0.12   0.04     0.08   0.01  -0.08    -0.03   0.18  -0.14
     3   6    -0.27   0.12  -0.05    -0.04   0.21   0.04     0.11   0.12  -0.00
     4   6    -0.06  -0.01  -0.17    -0.16   0.23   0.14     0.18  -0.16   0.08
     5   6     0.08  -0.02  -0.12    -0.03  -0.07   0.02    -0.02  -0.19   0.00
     6   8    -0.11  -0.04   0.41     0.12  -0.11  -0.14    -0.00   0.03   0.06
     7   6     0.01  -0.04   0.26     0.03  -0.11  -0.06    -0.01   0.06  -0.03
     8   6     0.12  -0.05  -0.04    -0.01  -0.05   0.03    -0.02   0.05  -0.05
     9  17     0.00  -0.00   0.06    -0.09  -0.00   0.13     0.06   0.02   0.14
    10  17     0.17  -0.03  -0.23     0.09   0.01  -0.07    -0.12  -0.05  -0.07
    11   1     0.13  -0.04   0.04     0.01  -0.17  -0.15    -0.16  -0.04  -0.25
    12   1    -0.17  -0.00   0.09     0.11   0.04  -0.16    -0.06   0.30  -0.24
    13   1    -0.41   0.17  -0.06    -0.06   0.38   0.08     0.21   0.22   0.03
    14   1    -0.01  -0.09  -0.26    -0.30   0.41   0.26     0.33  -0.31   0.18
    15   1     0.10  -0.02  -0.19     0.05  -0.07  -0.20    -0.14  -0.30   0.03
    16   1     0.18  -0.01  -0.12    -0.05  -0.26   0.18     0.01  -0.24   0.04
                      4                      5                      6
                      A                      A                      A
 Frequencies --    179.9540               246.5268               256.3122
 Red. masses --      7.5366                 7.0655                12.0092
 Frc consts  --      0.1438                 0.2530                 0.4648
 IR Inten    --      5.9500                 3.9590                 0.1164
  Atom  AN      X      Y      Z        X      Y      Z        X      Y      Z
     1   6    -0.12  -0.06   0.09    -0.03  -0.09  -0.09    -0.18   0.02  -0.09
     2   6    -0.21  -0.02   0.09     0.16  -0.24  -0.09    -0.10   0.03  -0.11
     3   6    -0.26   0.02   0.08     0.10  -0.19  -0.07    -0.00  -0.02  -0.02
     4   6    -0.23  -0.01   0.07    -0.17   0.14  -0.01    -0.06  -0.07   0.05
     5   6    -0.07  -0.18   0.03    -0.10   0.05  -0.03    -0.25   0.04   0.05
     6   8     0.23   0.07  -0.14     0.03  -0.12   0.29    -0.32   0.01  -0.09
     7   6     0.04   0.10   0.01    -0.03  -0.05  -0.01    -0.14  -0.03  -0.13
     8   6     0.05   0.10   0.05     0.00   0.10  -0.13    -0.05  -0.09  -0.18
     9  17     0.25   0.01  -0.07     0.13   0.09   0.07     0.20  -0.20   0.10
    10  17    -0.05  -0.02  -0.02    -0.12   0.07  -0.04     0.24   0.23   0.09
    11   1    -0.21  -0.00   0.12     0.01  -0.07  -0.05    -0.22   0.02  -0.12
    12   1    -0.23  -0.00   0.09     0.18  -0.27  -0.09    -0.04   0.02  -0.16
    13   1    -0.36   0.11   0.09     0.18  -0.30  -0.09     0.13  -0.04  -0.01
    14   1    -0.29   0.06   0.07    -0.37   0.38   0.04     0.01  -0.14   0.10
    15   1    -0.09  -0.26  -0.19    -0.01   0.10  -0.12    -0.26   0.09   0.26
    16   1     0.07  -0.30   0.13    -0.18  -0.03   0.03    -0.41   0.13  -0.04
                      7                      8                      9
                      A                      A                      A
 Frequencies --    328.4078               370.1775               394.1086
 Red. masses --     10.1266                 3.5658                 3.7643
 Frc consts  --      0.6435                 0.2879                 0.3445
 IR Inten    --      5.7124                14.3708                 1.9000
  Atom  AN      X      Y      Z        X      Y      Z        X      Y      Z
     1   6     0.01  -0.01  -0.05     0.08   0.00   0.07    -0.08   0.08  -0.05
     2   6     0.04   0.06  -0.06     0.10  -0.07   0.10     0.04  -0.04  -0.07
     3   6     0.09  -0.06  -0.07    -0.03   0.04   0.05     0.11  -0.11  -0.04
     4   6     0.05  -0.01  -0.04     0.05   0.04  -0.01    -0.09   0.09   0.03
     5   6    -0.03   0.07  -0.03     0.21  -0.14  -0.05    -0.01  -0.14  -0.06
     6   8     0.13  -0.05   0.03    -0.13   0.02  -0.03    -0.14   0.17   0.02
     7   6    -0.07  -0.04   0.12    -0.05   0.00  -0.02     0.01   0.11   0.03
     8   6    -0.30   0.06   0.65    -0.06  -0.00  -0.06     0.00   0.00   0.17
     9  17     0.05  -0.16  -0.03     0.01  -0.07   0.01    -0.02   0.03  -0.02
    10  17    -0.03   0.15  -0.15    -0.08   0.12  -0.02     0.09  -0.09   0.01
    11   1     0.12  -0.10  -0.13     0.08   0.04   0.12    -0.16   0.11  -0.04
    12   1    -0.22   0.33  -0.07     0.12  -0.12   0.13     0.02  -0.02  -0.07
    13   1     0.15  -0.12  -0.08    -0.17   0.10   0.05     0.22  -0.20  -0.05
    14   1     0.07  -0.03  -0.04    -0.01   0.10  -0.03    -0.21   0.23   0.12
    15   1     0.02   0.15   0.09     0.13  -0.33  -0.41    -0.08  -0.32  -0.45
    16   1    -0.13   0.15  -0.10     0.52  -0.35   0.13     0.24  -0.40   0.18
                     10                     11                     12
                      A                      A                      A
 Frequencies --    449.1547               535.6187               615.0098
 Red. masses --      9.2880                 3.4475                 4.4446
 Frc consts  --      1.1040                 0.5827                 0.9905
 IR Inten    --      9.9007                 5.5521                20.5984
  Atom  AN      X      Y      Z        X      Y      Z        X      Y      Z
     1   6     0.11  -0.20  -0.01     0.02   0.00   0.07     0.15  -0.21  -0.07
     2   6     0.07  -0.11   0.00    -0.17   0.23   0.05    -0.06   0.01  -0.10
     3   6    -0.11   0.10   0.03     0.14  -0.15   0.00     0.05  -0.07  -0.03
     4   6     0.06  -0.09  -0.02    -0.03   0.11   0.01    -0.07  -0.02   0.04
     5   6     0.05  -0.03   0.01     0.05   0.03  -0.02     0.04  -0.05   0.04
     6   8    -0.36  -0.09  -0.14    -0.02  -0.13  -0.09    -0.08   0.17  -0.09
     7   6    -0.06  -0.20  -0.03    -0.05  -0.13   0.06     0.07   0.05   0.30
     8   6    -0.10  -0.02   0.25    -0.02  -0.04  -0.06     0.17   0.01  -0.04
     9  17     0.14   0.28  -0.02     0.03   0.05   0.00    -0.02  -0.04  -0.00
    10  17     0.02  -0.06  -0.01    -0.01   0.00   0.00    -0.06   0.05  -0.01
    11   1     0.20  -0.23  -0.02     0.13  -0.11  -0.04     0.18  -0.30  -0.19
    12   1     0.01  -0.01  -0.04    -0.33   0.38   0.08    -0.08   0.04  -0.10
    13   1    -0.29   0.32   0.06     0.31  -0.41  -0.04     0.08   0.07   0.01
    14   1     0.06  -0.10  -0.03    -0.03   0.11  -0.02    -0.26   0.21   0.10
    15   1     0.14   0.15   0.31     0.08  -0.06  -0.34     0.28   0.27   0.33
    16   1    -0.19   0.16  -0.14     0.22  -0.18   0.15    -0.35   0.12  -0.11
                     13                     14                     15
                      A                      A                      A
 Frequencies --    639.6856               741.5848               759.9646
 Red. masses --      3.1911                 2.2475                 2.2753
 Frc consts  --      0.7694                 0.7282                 0.7742
 IR Inten    --      9.7691                38.6448                 5.2789
  Atom  AN      X      Y      Z        X      Y      Z        X      Y      Z
     1   6    -0.12   0.07   0.03     0.04   0.08  -0.04    -0.03   0.21   0.02
     2   6     0.10  -0.03  -0.01    -0.10   0.00  -0.09     0.01   0.01  -0.09
     3   6     0.00   0.09  -0.04    -0.06   0.02   0.03     0.01  -0.03  -0.09
     4   6     0.04   0.01  -0.03    -0.07   0.01   0.06    -0.03  -0.12   0.01
     5   6    -0.10   0.01  -0.06     0.02   0.04   0.07     0.08  -0.02   0.11
     6   8     0.05  -0.03  -0.10    -0.04  -0.01   0.00     0.00  -0.06  -0.02
     7   6    -0.13  -0.05   0.32     0.17  -0.07  -0.05     0.03  -0.07   0.06
     8   6     0.01  -0.03  -0.04     0.08  -0.05   0.08     0.01  -0.05   0.00
     9  17     0.02   0.02  -0.00    -0.00   0.00  -0.00     0.01   0.01  -0.00
    10  17     0.00  -0.00   0.01    -0.04   0.03  -0.01    -0.01   0.01  -0.00
    11   1     0.07  -0.06  -0.07     0.01   0.10  -0.02    -0.05   0.17  -0.04
    12   1     0.52  -0.45  -0.02     0.35  -0.52  -0.02    -0.02  -0.07   0.04
    13   1     0.15  -0.12  -0.08     0.35  -0.27  -0.01    -0.16   0.42  -0.00
    14   1     0.29  -0.28  -0.01     0.26  -0.39  -0.10    -0.52   0.44   0.10
    15   1    -0.19  -0.13  -0.22     0.04  -0.01  -0.11    -0.11  -0.14   0.27
    16   1     0.11  -0.08   0.02     0.07  -0.09   0.18     0.19   0.16  -0.04
                     16                     17                     18
                      A                      A                      A
 Frequencies --    809.1414               830.0323               846.5185
 Red. masses --      6.1689                 3.8041                 1.4871
 Frc consts  --      2.3796                 1.5442                 0.6278
 IR Inten    --     28.4940                 7.4163                29.9229
  Atom  AN      X      Y      Z        X      Y      Z        X      Y      Z
     1   6     0.01   0.06  -0.23     0.14  -0.02  -0.02    -0.00   0.05   0.01
     2   6    -0.22  -0.18  -0.18     0.08   0.08  -0.00     0.08  -0.10  -0.08
     3   6    -0.06  -0.09   0.29    -0.07   0.03  -0.17    -0.05   0.01   0.00
     4   6     0.13   0.05   0.10    -0.20  -0.08   0.02    -0.04  -0.01   0.03
     5   6     0.23   0.11   0.00     0.12  -0.02   0.21    -0.00   0.05   0.03
     6   8     0.07  -0.01  -0.01     0.04   0.02   0.02    -0.02  -0.01  -0.01
     7   6    -0.20   0.07   0.08    -0.18   0.08  -0.03     0.03  -0.04   0.05
     8   6    -0.17   0.05  -0.06    -0.14   0.07  -0.06     0.05   0.03  -0.02
     9  17     0.01   0.01  -0.00     0.00   0.00   0.00    -0.00  -0.01   0.00
    10  17     0.05  -0.04   0.01     0.04  -0.03   0.01    -0.00   0.00  -0.00
    11   1     0.17   0.10  -0.09     0.07  -0.20  -0.33     0.05   0.11   0.13
    12   1    -0.02  -0.26  -0.33     0.07  -0.09   0.21    -0.54   0.61  -0.19
    13   1     0.06   0.12   0.35     0.31  -0.26  -0.21     0.04   0.02   0.01
    14   1    -0.04   0.18  -0.30     0.08  -0.42  -0.10     0.22  -0.32  -0.08
    15   1     0.16   0.05   0.04     0.27   0.07   0.07    -0.01  -0.01  -0.16
    16   1     0.12   0.01   0.09     0.15   0.01   0.19     0.14  -0.05   0.12
                     19                     20                     21
                      A                      A                      A
 Frequencies --    909.1328               939.4398               958.2832
 Red. masses --      9.0586                 2.0919                 1.8910
 Frc consts  --      4.4113                 1.0878                 1.0231
 IR Inten    --    128.6047                12.6574                 1.0660
  Atom  AN      X      Y      Z        X      Y      Z        X      Y      Z
     1   6    -0.14  -0.04   0.09     0.17   0.04  -0.07    -0.06  -0.06   0.14
     2   6    -0.02   0.03  -0.03    -0.02   0.02   0.04    -0.04  -0.01  -0.07
[...]
   zx        -0.237917D+01     -0.352557D+00     -0.392272D+00
   zy         0.169514D+01      0.251194D+00      0.279491D+00
   zz         0.743229D+02      0.110135D+02      0.122542D+02

 ----------------------------------------------------------------------

 Dipole orientation:
     6         -1.43190670          0.91122270          2.32871230
     6          0.90108667         -0.51906434          2.94866140
     6          0.20245520         -2.98182977          3.75051686
     6         -2.36797201         -3.11408610          3.98714485
     6         -3.57020690         -0.56827608          3.61129340
     8         -2.77188068         -1.61621525         -1.28493945
     6         -1.30944420          0.01433993         -0.52077874
     6          1.01869569          0.70704073         -1.71453332
    17          2.52860777          3.59564379         -1.06801028
    17          1.66931108         -0.49386699         -4.69743795
     1         -1.40210130          2.95338696          2.58055244
     1          2.79552982          0.24364444          2.91518249
     1          1.51397621         -4.52695621          4.04860850
     1         -3.42420449         -4.80075546          4.48099478
     1         -4.04034396          0.28319050          5.44920390
     1         -5.28864695         -0.64906238          2.47146804

 Electric dipole moment (dipole orientation):
 (Debye = 10**-18 statcoulomb cm , SI units = C m)
                  (au)            (Debye)         (10**-30 SI)
   Tot        0.180088D+01      0.457739D+01      0.152685D+02
   x          0.000000D+00      0.000000D+00      0.000000D+00
   y          0.000000D+00      0.000000D+00      0.000000D+00
   z          0.180088D+01      0.457739D+01      0.152685D+02

 Dipole polarizability, Alpha (dipole orientation).
 (esu units = cm**3 , SI units = C**2 m**2 J**-1)
 Alpha(0;0):
               (au)            (10**-24 esu)      (10**-40 SI)
   iso        0.111428D+03      0.165120D+02      0.183721D+02
   aniso      0.896918D+02      0.132910D+02      0.147882D+02
   xx         0.977109D+02      0.144793D+02      0.161104D+02
   yx         0.215018D+02      0.318624D+01      0.354517D+01
   yy         0.948540D+02      0.140559D+02      0.156393D+02
   zx        -0.315265D+02     -0.467175D+01     -0.519802D+01
   zy        -0.231312D+02     -0.342769D+01     -0.381382D+01
   zz         0.141720D+03      0.210008D+02      0.233665D+02

 ----------------------------------------------------------------------
 1\1\GINC-SWANNODE-0-10\Freq\RB3LYP\6-31G(d)\C7H6Cl2O1\ROOT\15-Jul-2020
 \0\\# int=ultrafine b3lyp/6-31g(d) freq=(hpmodes,intmodes)\\21-TS2B-fr
 eq-b3lyp-631gd-1\\0,1\C,-1.166504,0.773816,-0.604746\C,-1.110551,0.857
 764,0.876626\C,-2.107002,0.001649,1.414505\C,-2.888792,-0.480984,0.401
 281\C,-2.540665,0.163985,-0.910981\O,-0.483559,-1.55672,-0.829558\C,-0
 .112758,-0.406305,-0.615106\C,1.118888,-0.039492,0.017143\Cl,1.796964,
 1.575366,-0.13932\Cl,2.304223,-1.274986,0.304438\H,-0.865889,1.651276,
 -1.175311\H,-0.463663,1.515063,1.44028\H,-2.199093,-0.25518,2.463628\H
 ,-3.695545,-1.196737,0.520404\H,-3.266914,0.955184,-1.150549\H,-2.5162
 78,-0.5449,-1.74132\\Version=ES64L-G16RevB.01\State=1-A\HF=-1265.86124
 46\RMSD=9.888e-09\RMSF=4.673e-07\ZeroPoint=0.1119887\Thermal=0.120368\
 Dipole=-1.4303489,1.0204111,0.3950215\DipoleDeriv=0.1049462,0.0699124,
 0.0541251,-0.0444109,0.02284,-0.1189635,-0.2319591,-0.0748564,-0.04159
 02,0.8194976,0.092491,-0.1400212,0.1180795,-0.0106215,0.0254263,0.0905
 486,-0.096373,-0.0194432,-0.511481,-0.1002444,-0.0208775,-0.2029155,-0
 .2123443,-0.1536112,-0.3736595,-0.0442787,0.1070645,0.0936374,0.171196
 1,0.0493251,-0.0914835,0.1344524,0.0307734,0.5298032,0.0093707,0.15281
 59,-0.0396748,-0.1055996,-0.0267994,0.0656999,0.0529579,0.0879626,-0.0
 780591,0.0297413,-0.0252651,-0.2295187,-0.2112913,-0.2171958,-0.025377
 2,-0.9643459,-0.466453,-0.0426653,-0.1763997,-0.3886963,-0.6731349,0.3
 199251,0.4264984,0.1376247,0.6854112,0.6057541,0.006923,0.4333715,0.34
 06559,1.3945453,-0.3392791,-0.0538289,-0.0134211,1.2041439,-0.3126687,
 0.1249525,-0.4012477,-0.254515,-0.3863297,-0.1756553,-0.0098464,-0.561
 1837,-0.6430256,0.0940024,0.1231208,0.1361329,-0.0197531,-0.7661281,0.
 3565704,-0.1043259,0.6441777,-0.5065719,0.1118213,-0.0197166,0.0813984
 ,-0.0061195,-0.0170556,-0.0312699,0.0024196,-0.0182635,-0.0012954,0.07
 60312,-0.0265842,0.0576967,0.0459761,-0.0153873,-0.029366,-0.0048651,0
 .0077693,0.0541519,-0.0320179,-0.0260698,-0.0151996,0.0493287,0.086051
 9,-0.024967,0.0080531,-0.0429332,0.1133004,0.047589,0.039841,0.0294482
 ,-0.0486314,0.0233671,-0.0742238,0.0123564,-0.0719032,0.048676,0.02982
 4,0.0108006,0.0323872,0.0625602,-0.0208007,0.0731083,-0.0171128,0.1170
 671,-0.0103801,0.0472192,-0.0842168,0.0235074,0.038803,0.1374651,0.008
 6933,0.0420952,-0.0185264,0.032651,-0.0726889,-0.0430592,-0.0246992,0.
 0068095\Polar=170.4770223,-0.6911336,89.4853152,-2.3791704,1.6951431,7
 4.3228817\Quadrupole=3.2401213,-3.8825041,0.6423828,-0.1267788,-0.7044
 949,-1.7428787\PG=C01 [X(C7H6Cl2O1)]\NImag=1\\0.42186415,0.12816974,0.
 50177375,0.00292310,-0.14569037,0.50564657,-0.06499225,-0.02309870,0.0
 0210132,0.42060272,-0.01910599,-0.06990095,-0.00833432,0.29815563,0.42
 117099,-0.03619186,0.02294227,-0.21381409,0.05891621,0.06903331,0.5305
 8672,-0.00686143,0.00573504,0.01830668,-0.15882217,-0.10931338,0.03824
 171,0.41673947,-0.01007947,0.00651394,0.01536085,-0.09237866,-0.154477
 31,0.04019298,0.21972981,0.31035105,0.01773906,0.02142849,-0.02915508,
 0.07092439,0.05838898,-0.14553119,0.05367126,-0.06407372,0.83228783,-0
 .02328038,-0.02305711,0.02204952,-0.03860250,-0.03175423,-0.00621726,-
 0.18990404,-0.08565246,-0.14847403,0.53970498,-0.01430371,-0.02025063,
 0.01025546,-0.04271370,-0.01945354,-0.00278264,-0.08151491,-0.10881394
 ,-0.08030841,0.31202369,0.41311218,0.01572244,0.00649096,-0.00337648,-
 0.03561372,-0.01833070,0.02933544,-0.12668802,-0.06123701,-0.29563481,
 0.10580930,-0.00505779,0.56038653,-0.14628651,-0.03769546,-0.02217610,
 -0.00706586,0.00221305,-0.01451406,0.00451728,0.00201854,-0.01147969,-
 0.08315727,-0.02401223,0.03466979,0.47329377,-0.03811437,-0.08847070,-
 0.00610491,-0.01078003,-0.00886345,-0.01803880,0.00019020,0.00945021,-
 0.00248129,-0.01814747,-0.09895869,0.04966616,-0.05629561,0.52841771,-
 0.00820554,-0.00796457,-0.08098571,-0.02543247,-0.00945900,-0.02084557
 ,-0.01120906,0.00469097,-0.04189361,0.02067916,0.04287986,-0.17213571,
 0.03893331,0.06078700,0.56954777,0.00530010,0.01925928,0.00280565,-0.0
 1362138,0.00007616,-0.00370032,0.00620441,0.00745664,0.00515253,0.0059
 0832,-0.00163428,-0.00944802,-0.00236253,0.00437706,-0.00350965,0.1427
 6012,0.01219714,-0.05519185,-0.01436681,-0.01116787,-0.00898566,0.0077
 5265,0.00422585,0.00606126,0.00350549,0.00213173,-0.00211694,-0.005589
 77,-0.00446108,-0.00267028,-0.00102088,0.17919184,0.68228102,0.0051393
 2,-0.00687924,0.00825326,-0.00064349,-0.00417679,-0.00054112,-0.003304
 99,-0.00376503,0.00119927,-0.00253496,0.00175465,0.00052822,-0.0015725
 4,0.00111513,-0.00231210,0.05610669,0.12642378,0.06964193,-0.07063362,
 -0.00718618,-0.01893451,0.01904589,0.00111795,0.04298201,-0.01382270,-
 0.00277887,-0.00748063,-0.01028952,0.00083236,0.01459525,-0.03616979,0
 .01994927,0.00046846,-0.11867955,-0.14988198,-0.03372886,0.47343106,0.
 00283487,-0.05809752,0.02519306,0.02649249,-0.00762045,-0.04407591,-0.
 01377223,-0.01232253,-0.00391160,-0.00991822,0.00578197,0.01055061,0.0
 0424417,0.00635453,0.00929118,-0.16228559,-0.58479603,-0.08769482,0.16
 904080,0.76713448,0.00098009,-0.00387933,-0.05304095,0.03084210,-0.015
 30694,-0.00574699,0.00749621,-0.00200742,-0.00567854,-0.00042579,-0.00
 046499,0.00037697,-0.01067433,0.00773427,0.00080957,-0.02838704,-0.083
 25173,-0.08035459,0.09444498,0.09017459,0.20340453,-0.03100477,0.01416
 737,-0.00879734,-0.00034418,0.00078573,-0.00907877,-0.00008197,-0.0040
 2922,0.00377249,0.00602541,0.00265512,-0.00441945,-0.00031301,0.002151
 68,-0.00021078,-0.02279582,-0.03248784,-0.01777665,-0.21815504,-0.0396
 0501,-0.08598062,0.43170971,0.02115795,0.00431409,0.00549745,-0.010703
 98,-0.00445075,0.00392519,0.00413131,0.00588539,0.00079856,0.00007079,
 -0.00321049,-0.00424786,0.00238545,-0.00385561,0.00020587,-0.04495632,
 -0.03870689,-0.02462091,-0.02895703,-0.06455239,-0.00824912,0.03662759
 ,0.32391727,-0.01117223,0.00331984,-0.00208996,-0.01477294,-0.00338713
 ,-0.00936850,0.01093428,0.00695378,0.00381297,0.00161307,-0.00283389,-
 0.00844960,0.00105931,0.00180482,0.00005394,-0.02604722,-0.04224739,-0
 .00067441,-0.06266186,0.01838297,-0.05562000,0.13338239,-0.00089224,0.
 10939833,-0.00366143,-0.00071009,-0.00157456,-0.00457226,-0.00442930,0
 .00299835,-0.00134677,0.00261919,-0.00111776,-0.00081643,-0.00073353,0
 .00018881,0.00029367,-0.00025095,0.00057446,-0.00458305,-0.00196804,-0
 .00554291,0.00100975,-0.02251995,0.01226737,-0.05971674,-0.04268929,-0
 .00808730,0.07093367,0.00127581,-0.00148302,-0.00088714,0.00050051,-0.
 00224492,0.00158304,-0.00103282,0.00187569,-0.00122864,-0.00033436,-0.
 00110385,0.00142257,-0.00046591,0.00109691,-0.00071349,-0.00385426,-0.
 00021268,-0.00274970,-0.00639122,-0.01873849,0.00764585,-0.05162676,-0
 .12298646,-0.00041896,0.05958695,0.18113855,-0.00062531,-0.00134021,-0
 .00062139,0.00381558,0.00416062,-0.00037834,0.00051102,-0.00158776,0.0
 0057039,0.00027709,-0.00012923,0.00010728,0.00013951,-0.00020190,0.000
 04461,0.00008826,0.00441817,0.00439996,-0.00973723,-0.01580280,-0.0072
 1758,0.00321042,0.01733398,-0.01244995,0.00094988,-0.01254261,0.013683
 05,-0.00042715,-0.00545417,-0.00735530,0.00413461,-0.00101907,-0.00048
 824,-0.00085489,-0.00083703,-0.00085625,-0.00058327,0.00001348,0.00138
 716,-0.00103713,0.00276691,-0.00017630,0.00170263,-0.00359231,0.001778
 94,-0.02744314,0.03828496,-0.00135635,-0.10263883,0.05614841,-0.027957
 93,0.00570310,0.00258661,0.00165792,0.12424975,-0.00156804,0.00224033,
 0.00295693,-0.00227216,0.00032855,-0.00028560,0.00093669,0.00064605,0.
 00110439,0.00064847,0.00040518,-0.00136865,0.00016112,-0.00097094,-0.0
 0010977,-0.00362134,0.00787209,-0.00076187,0.00918937,-0.01411590,-0.0
 0279723,0.07069049,-0.09318614,0.02433371,0.01407329,-0.03867177,0.004
 66398,-0.08935160,0.13578483,-0.00284145,0.00086766,0.00579242,-0.0028
 4848,0.00072424,-0.00189034,-0.00109910,-0.00016867,-0.00034392,-0.000
 95355,0.00034038,0.00021614,0.00017434,-0.00085338,0.00120579,0.000385
 59,0.00448192,-0.00191715,-0.01053800,0.00507177,0.00149075,-0.0162644
 5,0.01001852,-0.02594355,-0.00111175,0.00816974,0.00182219,0.03328935,
 -0.02801971,0.01968883,-0.06700345,-0.06637572,0.03492862,-0.00085361,
 0.00063783,0.00353456,0.00193095,-0.00012211,0.00047879,-0.00504604,-0
 .00283138,-0.00229856,-0.00397206,-0.01751982,0.01535992,-0.00178936,0
 .00229907,0.00064831,0.00680692,0.01394181,-0.01144095,-0.00030312,0.0
 0090488,-0.00118504,-0.00245670,-0.00082688,-0.00033269,-0.00122746,0.
 00053336,0.00109387,0.07343956,-0.06812338,-0.23066930,0.12528215,0.00
 360047,0.00830285,-0.00536066,-0.00047240,-0.00001503,-0.00197756,-0.0
 0073800,-0.00025457,-0.00052811,0.00084812,-0.00489971,0.00395349,0.00
 296038,-0.00299640,-0.00029213,-0.00703674,-0.01509351,0.00887333,-0.0
 0050184,-0.00066586,0.00040133,-0.00074820,0.00126530,-0.00087225,0.00
 068157,-0.00026318,-0.00033155,0.06951509,0.24429238,0.03702459,0.1188
 7086,-0.12392131,0.01071462,0.02605480,-0.01267714,-0.00153130,0.00043
 849,-0.00537069,-0.00225331,-0.00105585,-0.00130894,-0.00058659,-0.008
 50747,0.00651116,0.00137962,-0.00189233,-0.00082092,-0.00442159,-0.004
 34310,0.00364405,0.00055554,0.00181259,-0.00012588,-0.00032150,-0.0010
 4184,0.00025409,-0.00007072,-0.00008523,-0.00017424,-0.04257942,-0.129
 73892,0.13182455,0.00372066,0.00005972,0.00320107,-0.14965329,-0.12514
 469,-0.09777973,-0.00518921,-0.01016268,-0.01250803,-0.00045593,-0.003
 84339,0.00226204,-0.00028398,-0.00185909,-0.00007368,0.00189398,0.0017
 5906,0.00052416,-0.00377418,-0.00163629,-0.00309212,-0.00209521,0.0048
 0440,0.00570798,-0.00124311,-0.00009556,0.00057799,-0.00054519,0.00025
 153,0.00036099,-0.00022830,-0.00000508,0.00012183,0.15919767,0.0009447
 8,0.00565027,0.00179505,-0.13207366,-0.15657100,-0.09457759,-0.0031926
 1,0.00028142,-0.00950630,-0.00436972,-0.00076883,-0.00053954,0.0002549
 0,0.00154720,0.00223507,-0.00150227,-0.00083946,-0.00066479,0.00301810
 ,0.00047907,0.00301914,0.00252675,-0.00322639,-0.00409622,-0.00190770,
 0.00001448,0.00125890,0.00052772,-0.00046301,-0.00036091,0.00052483,-0
 .00011873,-0.00112290,0.13417548,0.15446288,-0.01581771,-0.01486374,-0
 .00479808,-0.09477198,-0.09882138,-0.14121012,0.00725548,0.00923484,0.
 01267950,0.00255371,0.00264516,-0.00224464,0.00140326,-0.00168424,-0.0
 0436263,0.00046710,-0.00040409,0.00099002,-0.00197300,0.00148772,-0.00
 165378,0.00055103,-0.00177440,0.00074108,0.00079843,0.00107918,-0.0004
 7456,0.00007866,0.00024464,-0.00007047,0.00014340,0.00074268,0.0014175
 4,0.10088542,0.10341065,0.13810453,-0.00096429,-0.00575880,0.00087920,
 0.00074998,-0.00238210,0.02243353,-0.05085136,-0.01504961,0.02213545,0
 .00554138,0.00678179,-0.01904038,0.00138719,-0.00670479,-0.00316850,0.
 00024904,0.00037216,0.00020460,0.00037752,-0.00088438,-0.00076296,0.00
 036148,-0.00022118,-0.00013564,0.00000152,0.00002721,-0.00005017,-0.00
 017740,0.00017019,0.00000051,0.00008290,0.00048657,0.00155756,-0.00056
 281,0.00102792,-0.00063353,0.04492000,-0.00441113,0.00068155,0.0012817
 0,0.00282103,0.00032732,0.01686909,-0.01828468,-0.06492822,0.06971944,
 0.00298596,0.00739312,-0.01130344,-0.00603527,0.00479447,-0.00048788,-
 0.00017809,0.00016248,-0.00007489,0.00030131,-0.00014287,0.00068509,-0
 .00004731,0.00027402,-0.00021735,-0.00001834,-0.00009428,0.00004759,-0
 .00012119,0.00005746,0.00001640,-0.00012191,0.00025173,0.00027953,0.00
 114925,-0.00059626,-0.00058666,0.01918021,0.05396276,-0.00082836,0.001
 16666,0.00021041,-0.00119398,-0.00022579,-0.00337005,0.02225141,0.0676
 6048,-0.33123976,0.00499562,0.00751091,-0.01318671,-0.00172826,-0.0007
 1504,-0.00094585,-0.00005520,-0.00034509,0.00009031,-0.00000718,0.0004
 2464,0.00024934,-0.00037198,0.00011264,0.00007435,0.00008381,0.0000744
 1,-0.00001676,0.00021566,-0.00018841,0.00001307,0.00012278,-0.00018981
 ,-0.00028123,0.00054090,-0.00002010,0.00012520,-0.02410535,-0.07515993
 ,0.34864717,0.00046195,-0.00200924,-0.00021301,0.00176510,-0.00530211,
 -0.00347203,-0.00463919,-0.01147365,0.00534098,-0.21204536,-0.15229976
 ,0.02073915,0.00209907,-0.00038699,-0.00130048,0.00005822,0.00039766,0
 .00002363,0.00102288,-0.00010962,-0.00041979,-0.00022558,0.00004315,0.
 00002163,0.00020903,0.00027574,-0.00027816,-0.00010360,0.00006887,0.00
 017196,-0.00013089,-0.00009634,-0.00025483,-0.00093751,-0.00006334,0.0
 0084333,-0.00132855,0.00238727,0.00013701,0.21439233,0.00024643,0.0008
 9867,0.00118098,-0.00489070,0.00342489,0.00100499,-0.00522409,0.002184
 43,0.00476920,-0.15334196,-0.17500410,0.02196266,-0.00785657,-0.002722
 87,-0.00288480,-0.00016220,0.00023411,0.00000565,-0.00023478,-0.000538
 81,0.00014927,-0.00003036,-0.00018925,-0.00020423,-0.00035756,-0.00006
 423,0.00033153,-0.00000670,0.00000017,-0.00017703,-0.00053452,0.000295
 93,0.00019829,0.00039196,-0.00006506,-0.00028166,0.00199775,-0.0021640
 4,-0.00060643,0.16927708,0.17324492,0.00041613,0.00352619,-0.00486357,
 -0.00343323,-0.00094044,-0.00407353,-0.01775389,-0.01440875,0.00976293
 ,0.02372744,0.02517615,-0.06362132,0.01812439,0.01328398,0.00474280,0.
 00013505,-0.00020037,0.00017176,-0.00105336,0.00035187,-0.00006358,0.0
 0047416,-0.00007984,0.00016151,-0.00009011,-0.00019563,0.00019250,0.00
 008675,-0.00000533,-0.00006939,0.00149017,0.00026329,0.00068879,-0.000
 59825,-0.00069237,0.00088814,0.00117779,0.00004930,0.00060682,-0.02191
 849,-0.02594197,0.05468916,-0.01828276,0.01892159,-0.00624257,-0.00112
 153,-0.00112092,0.00264856,0.00085261,0.00085325,0.00138044,0.00779001
 ,-0.00633127,-0.00086181,-0.15302147,0.11878751,-0.03325573,-0.0000943
 0,-0.00101911,-0.00039172,-0.00283422,-0.00074140,-0.00198807,-0.00049
 224,0.00130839,-0.00136050,-0.00008299,-0.00019861,0.00003347,-0.00104
 509,0.00024526,0.00041965,0.00110112,-0.00005346,0.00064859,0.00029129
 ,-0.00030495,-0.00018270,-0.00029777,0.00059191,0.00003175,-0.00074170
 ,0.00067556,-0.00036941,0.16849309,-0.01038835,0.00880181,-0.00468032,
 0.00054328,0.00026534,0.00081354,-0.00236963,-0.00127750,0.00045381,0.
 00886755,-0.01008176,0.00577184,0.12339039,-0.17727180,0.03652976,0.00
 245090,0.00041464,0.00085088,-0.00246380,-0.00250288,-0.00221734,-0.00
 084349,0.00090662,-0.00025876,0.00018287,0.00020218,0.00004506,-0.0005
 0533,0.00018989,0.00021327,0.00053332,0.00081663,0.00033226,0.00024011
 ,-0.00022972,-0.00000817,-0.00018599,0.00047237,0.00013540,-0.00073761
 ,0.00036996,0.00070102,-0.13234665,0.19374323,-0.00268355,0.00197905,-
 0.00182153,0.00034931,0.00141547,0.00028190,0.00139315,0.00108578,-0.0
 0195234,-0.01952597,0.01963788,-0.01035979,-0.03824309,0.04024085,-0.0
 5547158,0.00186729,0.00084840,0.00073989,-0.00091576,-0.00159844,-0.00
 029064,0.00043040,0.00002572,0.00002912,-0.00009195,-0.00024428,0.0001
 0469,-0.00017720,0.00018942,0.00019039,0.00030692,-0.00018451,0.000447
 37,0.00003058,-0.00013966,0.00001134,0.00100816,-0.00174081,-0.0005581
 9,0.00080139,-0.00035204,-0.00002839,0.03917973,-0.04377807,0.06148662
 ,0.00205117,-0.01496726,-0.02190177,-0.00664926,-0.00341456,-0.0003126
 6,0.00212899,-0.00011366,0.00132099,-0.00078935,0.00791171,0.00299602,
 -0.04792137,0.00183649,0.01052690,-0.00015083,0.00200371,0.00107049,0.
 00010776,-0.00336643,-0.00150274,0.00006991,-0.00005451,0.00066199,0.0
 0032876,0.00057355,-0.00023757,0.00029306,-0.00015552,-0.00023948,-0.0
 0035044,-0.00031676,0.00001692,-0.00013488,0.00041378,-0.00160090,0.00
 051117,-0.00019902,-0.00008864,0.00014380,0.00005067,-0.00041514,-0.00
 051407,0.01363242,0.01627060,0.05087558,-0.00073230,-0.00681043,-0.008
 73976,-0.00203397,-0.00125192,0.00100412,0.00022785,-0.00141488,0.0033
 1916,0.00058535,0.01332491,0.01233808,0.00130637,-0.16297699,-0.137932
 81,0.00242210,-0.00050939,0.00153009,0.00148145,-0.00122866,-0.0001074
 3,-0.00043290,-0.00026714,-0.00064028,-0.00012934,0.00000659,0.0002169
 4,-0.00012226,0.00014637,0.00000734,-0.00055786,-0.00024852,-0.0001991
 9,-0.00008473,0.00044315,-0.00042052,0.00114305,-0.00045161,0.00036545
 ,0.00002890,0.00009528,-0.00088709,0.00073291,-0.01481902,-0.01738477,
 -0.00383462,0.17596226,-0.00157871,0.00002547,-0.00141450,0.00104677,-
 0.00079493,-0.00075708,0.00152517,0.00163019,-0.00351294,-0.00132004,-
 0.01756766,-0.02063258,0.00647076,-0.13604516,-0.20396288,0.00275968,0
 .00188804,0.00060566,-0.00103873,-0.00350175,-0.00030855,0.00052361,0.
 00013385,0.00045056,0.00007675,0.00004751,-0.00002020,-0.00005616,0.00
 012875,-0.00001053,-0.00027068,-0.00004076,-0.00010720,-0.00016116,0.0
 0000154,-0.00014308,-0.00150027,0.00062282,-0.00041812,-0.00022230,0.0
 0084558,0.00081539,0.00031032,0.00509582,0.00719114,-0.00656501,0.1475
 3068,0.22222492\\-0.00000002,-0.00000015,0.00000034,-0.00000002,-0.000
 00021,0.00000055,-0.00000003,-0.00000060,-0.00000036,0.00000049,0.0000
 0021,-0.00000050,-0.00000014,0.00000020,0.00000014,0.,0.00000017,-0.00
 000076,0.00000040,0.00000058,0.00000003,-0.00000005,0.00000019,0.00000
 018,-0.00000013,0.00000028,0.00000107,0.00000001,0.00000031,-0.0000002
 3,0.00000007,0.00000080,0.00000056,-0.00000038,-0.00000078,0.00000058,
 -0.00000032,-0.00000124,-0.00000029,-0.00000032,-0.00000080,-0.0000009
 1,0.00000011,0.00000031,0.00000011,0.00000031,0.00000073,-0.00000052\\
 \@


 IF GOD HAD MEANT MAN TO SEE THE SUN RISE, HE
 WOULD HAVE SCHEDULED IT FOR A LATER HOUR.
 Job cpu time:       0 days  0 hours 49 minutes 43.1 seconds.
 Elapsed time:       0 days  0 hours  4 minutes  9.0 seconds.
 File lengths (MBytes):  RWF=     67 Int=      0 D2E=      0 Chk=      3 Scr=      1
 Normal termination of Gaussian 16 at Wed Jul 15 21:35:21 2020.
