 Entering Gaussian System, Link 0=/usr/local/shared/gaussian/x86_64_sse4/16-B01/g16/g16
 Initial command:
 /usr/local/shared/gaussian/x86_64_sse4/16-B01/g16/l1.exe "/scratch/sl884/20-TS2A-freq-b3lyp-631gd-1/Gau-25518.inp" -scrdir="/scratch/sl884/20-TS2A-freq-b3lyp-631gd-1/"
 Entering Link 1 = /usr/local/shared/gaussian/x86_64_sse4/16-B01/g16/l1.exe PID=     25522.
  
 Copyright (c) 1988-2017, Gaussian, Inc.  All Rights Reserved.
  
 This is part of the Gaussian(R) 16 program.  It is based on
 the Gaussian(R) 09 system (copyright 2009, Gaussian, Inc.),
 the Gaussian(R) 03 system (copyright 2003, Gaussian, Inc.),
 the Gaussian(R) 98 system (copyright 1998, Gaussian, Inc.),
 the Gaussian(R) 94 system (copyright 1995, Gaussian, Inc.),
 the Gaussian 92(TM) system (copyright 1992, Gaussian, Inc.),
 the Gaussian 90(TM) system (copyright 1990, Gaussian, Inc.),
 the Gaussian 88(TM) system (copyright 1988, Gaussian, Inc.),
 the Gaussian 86(TM) system (copyright 1986, Carnegie Mellon
 University), and the Gaussian 82(TM) system (copyright 1983,
 Carnegie Mellon University). Gaussian is a federally registered
 trademark of Gaussian, Inc.
  
 This software contains proprietary and confidential information,
 including trade secrets, belonging to Gaussian, Inc.
  
 This software is provided under written license and may be
 used, copied, transmitted, or stored only in accord with that
 written license.
  
 The following legend is applicable only to US Government
 contracts under FAR:
  
                    RESTRICTED RIGHTS LEGEND
  
 Use, reproduction and disclosure by the US Government is
 subject to restrictions as set forth in subparagraphs (a)
 and (c) of the Commercial Computer Software - Restricted
 Rights clause in FAR 52.227-19.
  
 Gaussian, Inc.
 340 Quinnipiac St., Bldg. 40, Wallingford CT 06492
  
  
 ---------------------------------------------------------------
 Warning -- This program may not be used in any manner that
 competes with the business of Gaussian, Inc. or will provide
 assistance to any competitor of Gaussian, Inc.  The licensee
 of this program is prohibited from giving any competitor of
 Gaussian, Inc. access to this program.  By using this program,
 the user acknowledges that Gaussian, Inc. is engaged in the
 business of creating and licensing software in the field of
 computational chemistry and represents and warrants to the
 licensee that it is not a competitor of Gaussian, Inc. and that
 it will not use this program in any manner prohibited above.
 ---------------------------------------------------------------
  

 Cite this work as:
 Gaussian 16, Revision B.01,
 M. J. Frisch, G. W. Trucks, H. B. Schlegel, G. E. Scuseria, 
 M. A. Robb, J. R. Cheeseman, G. Scalmani, V. Barone, 
 G. A. Petersson, H. Nakatsuji, X. Li, M. Caricato, A. V. Marenich, 
 J. Bloino, B. G. Janesko, R. Gomperts, B. Mennucci, H. P. Hratchian, 
 J. V. Ortiz, A. F. Izmaylov, J. L. Sonnenberg, D. Williams-Young, 
 F. Ding, F. Lipparini, F. Egidi, J. Goings, B. Peng, A. Petrone, 
 T. Henderson, D. Ranasinghe, V. G. Zakrzewski, J. Gao, N. Rega, 
 G. Zheng, W. Liang, M. Hada, M. Ehara, K. Toyota, R. Fukuda, 
 J. Hasegawa, M. Ishida, T. Nakajima, Y. Honda, O. Kitao, H. Nakai, 
 T. Vreven, K. Throssell, J. A. Montgomery, Jr., J. E. Peralta, 
 F. Ogliaro, M. J. Bearpark, J. J. Heyd, E. N. Brothers, K. N. Kudin, 
 V. N. Staroverov, T. A. Keith, R. Kobayashi, J. Normand, 
 K. Raghavachari, A. P. Rendell, J. C. Burant, S. S. Iyengar, 
 J. Tomasi, M. Cossi, J. M. Millam, M. Klene, C. Adamo, R. Cammi, 
 J. W. Ochterski, R. L. Martin, K. Morokuma, O. Farkas, 
 J. B. Foresman, and D. J. Fox, Gaussian, Inc., Wallingford CT, 2016.
 
 ******************************************
 Gaussian 16:  ES64L-G16RevB.01 20-Dec-2017
                15-Jul-2020 
 ******************************************
 %nproc=12
 Will use up to   12 processors via shared memory.
 %mem=12GB
 %chk=20-TS2A-freq-b3lyp-631gd-1.chk
 ------------------------------------------------------
 # int=ultrafine b3lyp/6-31g(d) freq=(hpmodes,intmodes)
 ------------------------------------------------------
 1/10=4,18=20,30=1,38=1/1,3;
 2/9=110,12=2,17=6,18=5,40=1/2;
 3/5=1,6=6,7=1,11=2,25=1,30=1,71=2,74=-5,75=-5,140=1/1,2,3;
 4//1;
 5/5=2,38=5,98=1/2;
 8/6=4,10=90,11=11/1;
 11/6=1,8=1,9=11,15=111,16=1/1,2,10;
 10/6=1/2;
 6/7=2,8=2,9=2,10=2,28=1/1;
 7/8=31,10=1,25=1/1,2,3,16;
 1/10=4,18=20,30=1/3;
 99//99;
 --------------------------
 20-TS2A-freq-b3lyp-631gd-1
 --------------------------
 Symbolic Z-matrix:
 Charge =  0 Multiplicity = 1
 C                    -1.14105  -0.82187   0.55786 
 C                    -1.41636  -0.99823  -0.88195 
 C                    -2.35245  -0.04542  -1.27917 
 C                    -2.77224   0.64943  -0.14785 
 C                    -2.39354  -0.11072   1.0866 
 O                    -0.61367   1.52486   0.39132 
 C                    -0.10117   0.38157   0.35295 
 C                     1.19383   0.04935  -0.00902 
 Cl                    1.83266  -1.57873   0.1013 
 Cl                    2.39182   1.29151  -0.19659 
 H                    -0.74511  -1.66978   1.11264 
 H                    -0.86036  -1.6651   -1.52993 
 H                    -2.60374   0.20464  -2.30317 
 H                    -3.41215   1.52442  -0.1503 
 H                    -3.16909  -0.85394   1.32532 
 H                    -2.21829   0.51904   1.95829 
 

 GradGradGradGradGradGradGradGradGradGradGradGradGradGradGradGradGradGrad
 Berny optimization.
 Initialization pass.
                           ----------------------------
                           !    Initial Parameters    !
                           ! (Angstroms and Degrees)  !
 --------------------------                            --------------------------
 ! Name  Definition              Value          Derivative Info.                !
 --------------------------------------------------------------------------------
 ! R1    R(1,2)                  1.4765         calculate D2E/DX2 analytically  !
 ! R2    R(1,5)                  1.5343         calculate D2E/DX2 analytically  !
 ! R3    R(1,7)                  1.6036         calculate D2E/DX2 analytically  !
 ! R4    R(1,11)                 1.0879         calculate D2E/DX2 analytically  !
 ! R5    R(2,3)                  1.3935         calculate D2E/DX2 analytically  !
 ! R6    R(2,12)                 1.0834         calculate D2E/DX2 analytically  !
 ! R7    R(3,4)                  1.3924         calculate D2E/DX2 analytically  !
 ! R8    R(3,13)                 1.0836         calculate D2E/DX2 analytically  !
 ! R9    R(4,5)                  1.4984         calculate D2E/DX2 analytically  !
 ! R10   R(4,14)                 1.084          calculate D2E/DX2 analytically  !
 ! R11   R(5,15)                 1.1004         calculate D2E/DX2 analytically  !
 ! R12   R(5,16)                 1.0896         calculate D2E/DX2 analytically  !
 ! R13   R(6,7)                  1.2535         calculate D2E/DX2 analytically  !
 ! R14   R(7,8)                  1.3851         calculate D2E/DX2 analytically  !
 ! R15   R(8,9)                  1.7524         calculate D2E/DX2 analytically  !
 ! R16   R(8,10)                 1.7359         calculate D2E/DX2 analytically  !
 ! A1    A(2,1,5)              103.8397         calculate D2E/DX2 analytically  !
 ! A2    A(2,1,7)               94.9306         calculate D2E/DX2 analytically  !
 ! A3    A(2,1,11)             118.1686         calculate D2E/DX2 analytically  !
 ! A4    A(5,1,7)              103.0357         calculate D2E/DX2 analytically  !
 ! A5    A(5,1,11)             118.857          calculate D2E/DX2 analytically  !
 ! A6    A(7,1,11)             114.4601         calculate D2E/DX2 analytically  !
 ! A7    A(1,2,3)              108.7572         calculate D2E/DX2 analytically  !
 ! A8    A(1,2,12)             124.1311         calculate D2E/DX2 analytically  !
 ! A9    A(3,2,12)             126.5213         calculate D2E/DX2 analytically  !
 ! A10   A(2,3,4)              108.187          calculate D2E/DX2 analytically  !
 ! A11   A(2,3,13)             125.6561         calculate D2E/DX2 analytically  !
 ! A12   A(4,3,13)             125.6404         calculate D2E/DX2 analytically  !
 ! A13   A(3,4,5)              109.8775         calculate D2E/DX2 analytically  !
 ! A14   A(3,4,14)             125.3749         calculate D2E/DX2 analytically  !
 ! A15   A(5,4,14)             124.0933         calculate D2E/DX2 analytically  !
 ! A16   A(1,5,4)               99.0645         calculate D2E/DX2 analytically  !
 ! A17   A(1,5,15)             109.6976         calculate D2E/DX2 analytically  !
 ! A18   A(1,5,16)             114.3494         calculate D2E/DX2 analytically  !
 ! A19   A(4,5,15)             110.0747         calculate D2E/DX2 analytically  !
 ! A20   A(4,5,16)             113.9884         calculate D2E/DX2 analytically  !
 ! A21   A(15,5,16)            109.2806         calculate D2E/DX2 analytically  !
 ! A22   A(1,7,6)              114.5466         calculate D2E/DX2 analytically  !
 ! A23   A(1,7,8)              117.3667         calculate D2E/DX2 analytically  !
 ! A24   A(6,7,8)              127.5201         calculate D2E/DX2 analytically  !
 ! A25   A(7,8,9)              123.1768         calculate D2E/DX2 analytically  !
 ! A26   A(7,8,10)             120.1227         calculate D2E/DX2 analytically  !
 ! A27   A(9,8,10)             114.8366         calculate D2E/DX2 analytically  !
 ! D1    D(5,1,2,3)             23.3704         calculate D2E/DX2 analytically  !
 ! D2    D(5,1,2,12)          -164.9494         calculate D2E/DX2 analytically  !
 ! D3    D(7,1,2,3)            -81.3687         calculate D2E/DX2 analytically  !
 ! D4    D(7,1,2,12)            90.3115         calculate D2E/DX2 analytically  !
 ! D5    D(11,1,2,3)           157.458          calculate D2E/DX2 analytically  !
 ! D6    D(11,1,2,12)          -30.8618         calculate D2E/DX2 analytically  !
 ! D7    D(2,1,5,4)            -30.3275         calculate D2E/DX2 analytically  !
 ! D8    D(2,1,5,15)            84.9057         calculate D2E/DX2 analytically  !
 ! D9    D(2,1,5,16)          -151.9345         calculate D2E/DX2 analytically  !
 ! D10   D(7,1,5,4)             68.1776         calculate D2E/DX2 analytically  !
 ! D11   D(7,1,5,15)          -176.5892         calculate D2E/DX2 analytically  !
 ! D12   D(7,1,5,16)           -53.4293         calculate D2E/DX2 analytically  !
 ! D13   D(11,1,5,4)          -164.0264         calculate D2E/DX2 analytically  !
 ! D14   D(11,1,5,15)          -48.7932         calculate D2E/DX2 analytically  !
 ! D15   D(11,1,5,16)           74.3666         calculate D2E/DX2 analytically  !
 ! D16   D(2,1,7,6)             91.6979         calculate D2E/DX2 analytically  !
 ! D17   D(2,1,7,8)            -80.3269         calculate D2E/DX2 analytically  !
 ! D18   D(5,1,7,6)            -13.7534         calculate D2E/DX2 analytically  !
 ! D19   D(5,1,7,8)            174.2218         calculate D2E/DX2 analytically  !
 ! D20   D(11,1,7,6)          -144.2614         calculate D2E/DX2 analytically  !
 ! D21   D(11,1,7,8)            43.7138         calculate D2E/DX2 analytically  !
 ! D22   D(1,2,3,4)             -5.0828         calculate D2E/DX2 analytically  !
 ! D23   D(1,2,3,13)           167.0302         calculate D2E/DX2 analytically  !
 ! D24   D(12,2,3,4)          -176.5115         calculate D2E/DX2 analytically  !
 ! D25   D(12,2,3,13)           -4.3985         calculate D2E/DX2 analytically  !
 ! D26   D(2,3,4,5)            -16.2797         calculate D2E/DX2 analytically  !
 ! D27   D(2,3,4,14)           172.7104         calculate D2E/DX2 analytically  !
 ! D28   D(13,3,4,5)           171.6058         calculate D2E/DX2 analytically  !
 ! D29   D(13,3,4,14)            0.5959         calculate D2E/DX2 analytically  !
 ! D30   D(3,4,5,1)             29.1625         calculate D2E/DX2 analytically  !
 ! D31   D(3,4,5,15)           -85.7794         calculate D2E/DX2 analytically  !
 ! D32   D(3,4,5,16)           151.0314         calculate D2E/DX2 analytically  !
 ! D33   D(14,4,5,1)          -159.6882         calculate D2E/DX2 analytically  !
 ! D34   D(14,4,5,15)           85.37           calculate D2E/DX2 analytically  !
 ! D35   D(14,4,5,16)          -37.8193         calculate D2E/DX2 analytically  !
 ! D36   D(1,7,8,9)            -14.2588         calculate D2E/DX2 analytically  !
 ! D37   D(1,7,8,10)          -177.9038         calculate D2E/DX2 analytically  !
 ! D38   D(6,7,8,9)            174.8971         calculate D2E/DX2 analytically  !
 ! D39   D(6,7,8,10)            11.2521         calculate D2E/DX2 analytically  !
 --------------------------------------------------------------------------------
 Trust Radius=3.00D-01 FncErr=1.00D-07 GrdErr=1.00D-07 EigMax=2.50D+02 EigMin=1.00D-04
 Number of steps in this run=      2 maximum allowed number of steps=      2.
 GradGradGradGradGradGradGradGradGradGradGradGradGradGradGradGradGradGrad

                          Input orientation:                          
 ---------------------------------------------------------------------
 Center     Atomic      Atomic             Coordinates (Angstroms)
 Number     Number       Type             X           Y           Z
 ---------------------------------------------------------------------
      1          6           0       -1.141052   -0.821869    0.557862
      2          6           0       -1.416363   -0.998228   -0.881945
      3          6           0       -2.352448   -0.045416   -1.279167
      4          6           0       -2.772244    0.649427   -0.147853
      5          6           0       -2.393543   -0.110719    1.086604
      6          8           0       -0.613672    1.524860    0.391324
      7          6           0       -0.101170    0.381565    0.352954
      8          6           0        1.193834    0.049346   -0.009019
      9         17           0        1.832655   -1.578728    0.101296
     10         17           0        2.391818    1.291505   -0.196594
     11          1           0       -0.745113   -1.669777    1.112642
     12          1           0       -0.860359   -1.665095   -1.529933
     13          1           0       -2.603741    0.204637   -2.303168
     14          1           0       -3.412151    1.524419   -0.150295
     15          1           0       -3.169094   -0.853936    1.325318
     16          1           0       -2.218288    0.519035    1.958288
 ---------------------------------------------------------------------
                    Distance matrix (angstroms):
                    1          2          3          4          5
     1  C    0.000000
     2  C    1.476463   0.000000
     3  C    2.333460   1.393518   0.000000
     4  C    2.307278   2.256562   1.392446   0.000000
     5  C    1.534287   2.370177   2.367029   1.498373   0.000000
     6  O    2.411017   2.937941   2.877438   2.390926   2.515248
     7  C    1.603619   2.271241   2.813252   2.730786   2.456738
     8  C    2.555790   2.944918   3.768073   4.013620   3.754369
     9  Cl   3.102293   3.443815   4.666027   5.121703   4.581117
    10  Cl   4.185299   4.496090   5.046522   5.204054   5.149030
    11  H    1.087886   2.209057   3.307994   3.328185   2.269066
    12  H    2.269076   1.083393   2.216433   3.304915   3.407786
    13  H    3.373228   2.208308   1.083629   2.207173   3.410892
    14  H    3.341324   3.298822   2.204927   1.084019   2.289357
    15  H    2.168634   2.822215   2.846745   2.141920   1.100380
    16  H    2.218029   3.318448   3.289030   2.181673   1.089558
                    6          7          8          9         10
     6  O    0.000000
     7  C    1.253497   0.000000
     8  C    2.367381   1.385074   0.000000
     9  Cl   3.962435   2.765097   1.752395   0.000000
    10  Cl   3.071331   2.710163   1.735889   2.939326   0.000000
    11  H    3.277695   2.280305   2.823654   2.770559   4.508173
    12  H    3.732010   2.882785   3.077693   3.149713   4.593031
    13  H    3.600507   3.653649   4.439461   5.351957   5.529425
    14  H    2.850410   3.538640   4.838481   6.099247   5.808825
    15  H    3.614028   3.447334   4.650969   5.200101   6.151656
    16  H    2.458018   2.660486   3.966545   4.925360   5.147165
                   11         12         13         14         15
    11  H    0.000000
    12  H    2.645091   0.000000
    13  H    4.316907   2.670800   0.000000
    14  H    4.348677   4.311385   2.651455   0.000000
    15  H    2.566420   3.760411   3.821794   2.809463   0.000000
    16  H    2.770606   4.333830   4.290388   2.623400   1.785982
                   16
    16  H    0.000000
 Stoichiometry    C7H6Cl2O
 Framework group  C1[X(C7H6Cl2O)]
 Deg. of freedom    42
 Full point group                 C1      NOp   1
 Largest Abelian subgroup         C1      NOp   1
 Largest concise Abelian subgroup C1      NOp   1
                         Standard orientation:                         
 ---------------------------------------------------------------------
 Center     Atomic      Atomic             Coordinates (Angstroms)
 Number     Number       Type             X           Y           Z
 ---------------------------------------------------------------------
      1          6           0       -1.141052    0.821869   -0.557862
      2          6           0       -1.416363    0.998228    0.881945
      3          6           0       -2.352448    0.045416    1.279167
      4          6           0       -2.772244   -0.649427    0.147853
      5          6           0       -2.393543    0.110719   -1.086604
      6          8           0       -0.613672   -1.524860   -0.391324
      7          6           0       -0.101170   -0.381565   -0.352954
      8          6           0        1.193834   -0.049346    0.009019
      9         17           0        1.832655    1.578728   -0.101296
     10         17           0        2.391818   -1.291505    0.196594
     11          1           0       -0.745113    1.669777   -1.112642
     12          1           0       -0.860359    1.665095    1.529933
     13          1           0       -2.603741   -0.204637    2.303168
     14          1           0       -3.412151   -1.524419    0.150295
     15          1           0       -3.169094    0.853936   -1.325318
     16          1           0       -2.218288   -0.519035   -1.958288
 ---------------------------------------------------------------------
 Rotational constants (GHZ):           1.7663346           0.7132698           0.5877429
 Standard basis: 6-31G(d) (6D, 7F)
 There are   170 symmetry adapted cartesian basis functions of A   symmetry.
 There are   170 symmetry adapted basis functions of A   symmetry.
   170 basis functions,   352 primitive gaussians,   170 cartesian basis functions
    45 alpha electrons       45 beta electrons
       nuclear repulsion energy       680.3098255786 Hartrees.
 NAtoms=   16 NActive=   16 NUniq=   16 SFac= 1.00D+00 NAtFMM=   60 NAOKFM=F Big=F
 Integral buffers will be    131072 words long.
 Raffenetti 2 integral format.
 Two-electron integral symmetry is turned on.
 One-electron integrals computed using PRISM.
 NBasis=   170 RedAO= T EigKep=  1.43D-03  NBF=   170
 NBsUse=   170 1.00D-06 EigRej= -1.00D+00 NBFU=   170
 ExpMin= 1.43D-01 ExpMax= 2.52D+04 ExpMxC= 3.78D+03 IAcc=3 IRadAn=         5 AccDes= 0.00D+00
 Harris functional with IExCor=  402 and IRadAn=       5 diagonalized for initial guess.
 HarFok:  IExCor=  402 AccDes= 0.00D+00 IRadAn=         5 IDoV= 1 UseB2=F ITyADJ=14
 ICtDFT=  3500011 ScaDFX=  1.000000  1.000000  1.000000  1.000000
 FoFCou: FMM=F IPFlag=           0 FMFlag=      100000 FMFlg1=           0
         NFxFlg=           0 DoJE=T BraDBF=F KetDBF=T FulRan=T
         wScrn=  0.000000 ICntrl=       500 IOpCl=  0 I1Cent=   200000004 NGrid=           0
         NMat0=    1 NMatS0=      1 NMatT0=    0 NMatD0=    1 NMtDS0=    0 NMtDT0=    0
 Petite list used in FoFCou.
 Requested convergence on RMS density matrix=1.00D-08 within 128 cycles.
 Requested convergence on MAX density matrix=1.00D-06.
 Requested convergence on             energy=1.00D-06.
 No special actions if energy rises.
 Integral accuracy reduced to 1.0D-05 until final iterations.
 EnCoef did     2 forward-backward iterations
 EnCoef did     1 forward-backward iterations
 Initial convergence to 1.0D-05 achieved.  Increase integral accuracy.
 SCF Done:  E(RB3LYP) =  -1265.86088181     A.U. after   19 cycles
            NFock= 19  Conv=0.87D-08     -V/T= 2.0048
 DoSCS=F DFT=T ScalE2(SS,OS)=  1.000000  1.000000
 Range of M.O.s used for correlation:     1   170
 NBasis=   170 NAE=    45 NBE=    45 NFC=     0 NFV=     0
 NROrb=    170 NOA=    45 NOB=    45 NVA=   125 NVB=   125

 **** Warning!!: The smallest alpha delta epsilon is  0.94603489D-01

 Symmetrizing basis deriv contribution to polar:
 IMax=3 JMax=2 DiffMx= 0.00D+00
 G2DrvN: will do    17 centers at a time, making    1 passes.
 Calling FoFCou, ICntrl=  3107 FMM=F I1Cent=   0 AccDes= 0.00D+00.
 End of G2Drv F.D. properties file   721 does not exist.
 End of G2Drv F.D. properties file   722 does not exist.
 End of G2Drv F.D. properties file   788 does not exist.
          IDoAtm=1111111111111111
          Differentiating once with respect to electric field.
                with respect to dipole field.
          Differentiating once with respect to nuclear coordinates.
 Keep R1 ints in memory in canonical form, NReq=117582726.
          There are    51 degrees of freedom in the 1st order CPHF.  IDoFFX=6 NUNeed=     3.
     48 vectors produced by pass  0 Test12= 1.10D-14 1.96D-09 XBig12= 5.52D+02 2.05D+01.
 AX will form    48 AO Fock derivatives at one time.
     48 vectors produced by pass  1 Test12= 1.10D-14 1.96D-09 XBig12= 7.93D+01 1.65D+00.
     48 vectors produced by pass  2 Test12= 1.10D-14 1.96D-09 XBig12= 9.01D-01 1.64D-01.
     48 vectors produced by pass  3 Test12= 1.10D-14 1.96D-09 XBig12= 1.59D-02 2.61D-02.
     48 vectors produced by pass  4 Test12= 1.10D-14 1.96D-09 XBig12= 2.86D-05 7.37D-04.
     39 vectors produced by pass  5 Test12= 1.10D-14 1.96D-09 XBig12= 2.94D-08 2.11D-05.
      7 vectors produced by pass  6 Test12= 1.10D-14 1.96D-09 XBig12= 2.84D-11 6.30D-07.
      3 vectors produced by pass  7 Test12= 1.10D-14 1.96D-09 XBig12= 2.88D-14 2.61D-08.
 InvSVY:  IOpt=1 It=  1 EMax= 2.31D-14
 Solved reduced A of dimension   289 with    51 vectors.
 Isotropic polarizability for W=    0.000000      110.15 Bohr**3.
 End of Minotr F.D. properties file   721 does not exist.
 End of Minotr F.D. properties file   722 does not exist.
 End of Minotr F.D. properties file   788 does not exist.

 **********************************************************************

            Population analysis using the SCF Density.

 **********************************************************************

 Orbital symmetries:
       Occupied  (A) (A) (A) (A) (A) (A) (A) (A) (A) (A) (A) (A)
                 (A) (A) (A) (A) (A) (A) (A) (A) (A) (A) (A) (A)
                 (A) (A) (A) (A) (A) (A) (A) (A) (A) (A) (A) (A)
                 (A) (A) (A) (A) (A) (A) (A) (A) (A)
       Virtual   (A) (A) (A) (A) (A) (A) (A) (A) (A) (A) (A) (A)
                 (A) (A) (A) (A) (A) (A) (A) (A) (A) (A) (A) (A)
                 (A) (A) (A) (A) (A) (A) (A) (A) (A) (A) (A) (A)
                 (A) (A) (A) (A) (A) (A) (A) (A) (A) (A) (A) (A)
                 (A) (A) (A) (A) (A) (A) (A) (A) (A) (A) (A) (A)
                 (A) (A) (A) (A) (A) (A) (A) (A) (A) (A) (A) (A)
                 (A) (A) (A) (A) (A) (A) (A) (A) (A) (A) (A) (A)
                 (A) (A) (A) (A) (A) (A) (A) (A) (A) (A) (A) (A)
                 (A) (A) (A) (A) (A) (A) (A) (A) (A) (A) (A) (A)
                 (A) (A) (A) (A) (A) (A) (A) (A) (A) (A) (A) (A)
                 (A) (A) (A) (A) (A)
 The electronic state is 1-A.
 Alpha  occ. eigenvalues -- -101.55842-101.54788 -19.12949 -10.28114 -10.26493
 Alpha  occ. eigenvalues --  -10.25227 -10.24323 -10.22905 -10.21829 -10.21675
 Alpha  occ. eigenvalues --   -9.47446  -9.46378  -7.23856  -7.22855  -7.22847
 Alpha  occ. eigenvalues --   -7.22804  -7.21804  -7.21748  -1.02264  -0.89856
 Alpha  occ. eigenvalues --   -0.89495  -0.82481  -0.75780  -0.74418  -0.68382
 Alpha  occ. eigenvalues --   -0.60109  -0.56700  -0.54815  -0.52242  -0.50025
 Alpha  occ. eigenvalues --   -0.45147  -0.43711  -0.42926  -0.41855  -0.40668
 Alpha  occ. eigenvalues --   -0.39095  -0.38360  -0.37320  -0.35271  -0.33287
 Alpha  occ. eigenvalues --   -0.31853  -0.30182  -0.29474  -0.26676  -0.19707
 Alpha virt. eigenvalues --   -0.10246   0.00577   0.01889   0.05343   0.06431
 Alpha virt. eigenvalues --    0.08938   0.12139   0.14009   0.14421   0.14840
 Alpha virt. eigenvalues --    0.15973   0.18132   0.19225   0.21838   0.25330
 Alpha virt. eigenvalues --    0.29590   0.31473   0.32661   0.34181   0.36391
 Alpha virt. eigenvalues --    0.40478   0.42471   0.43250   0.45712   0.47364
 Alpha virt. eigenvalues --    0.48618   0.49548   0.50610   0.52758   0.54036
 Alpha virt. eigenvalues --    0.54990   0.55750   0.58027   0.58369   0.59313
 Alpha virt. eigenvalues --    0.60137   0.63740   0.65300   0.66705   0.69029
 Alpha virt. eigenvalues --    0.70753   0.71399   0.76505   0.77959   0.80833
 Alpha virt. eigenvalues --    0.81266   0.81985   0.82149   0.83577   0.85501
 Alpha virt. eigenvalues --    0.86217   0.87228   0.87476   0.88425   0.90514
 Alpha virt. eigenvalues --    0.91706   0.92749   0.96561   0.99433   1.00777
 Alpha virt. eigenvalues --    1.02793   1.05433   1.08475   1.10474   1.11043
 Alpha virt. eigenvalues --    1.13221   1.17197   1.20698   1.24910   1.27160
 Alpha virt. eigenvalues --    1.30620   1.33698   1.35833   1.42202   1.44597
 Alpha virt. eigenvalues --    1.46577   1.51347   1.55620   1.63511   1.67332
 Alpha virt. eigenvalues --    1.74503   1.78033   1.79555   1.83721   1.87078
 Alpha virt. eigenvalues --    1.90393   1.90957   1.93935   1.97806   2.01516
 Alpha virt. eigenvalues --    2.04378   2.06513   2.07517   2.08817   2.10759
 Alpha virt. eigenvalues --    2.15661   2.18482   2.22550   2.26473   2.28754
 Alpha virt. eigenvalues --    2.34160   2.38968   2.43272   2.50773   2.53946
 Alpha virt. eigenvalues --    2.57749   2.58124   2.62397   2.63785   2.65475
 Alpha virt. eigenvalues --    2.79637   2.88233   2.91491   2.99305   3.04689
 Alpha virt. eigenvalues --    4.00630   4.10118   4.18053   4.29215   4.31495
 Alpha virt. eigenvalues --    4.33314   4.36199   4.47067   4.50370   4.62156
          Condensed to atoms (all electrons):
               1          2          3          4          5          6
     1  C    5.282552   0.412612  -0.056775  -0.054569   0.342081  -0.089118
     2  C    0.412612   5.020848   0.529024  -0.052132  -0.069336  -0.029839
     3  C   -0.056775   0.529024   4.838265   0.543911  -0.060220   0.000036
     4  C   -0.054569  -0.052132   0.543911   4.958325   0.359033   0.050182
     5  C    0.342081  -0.069336  -0.060220   0.359033   5.091851  -0.002320
     6  O   -0.089118  -0.029839   0.000036   0.050182  -0.002320   8.144968
     7  C    0.247461  -0.036850  -0.019750  -0.013643  -0.044919   0.488780
     8  C   -0.105260   0.020274  -0.002928   0.000075   0.006724  -0.080394
     9  Cl   0.004109  -0.006890   0.000621  -0.000076   0.000703   0.002191
    10  Cl   0.005709  -0.000242   0.000015  -0.000065  -0.000158   0.006078
    11  H    0.361114  -0.034588   0.005892   0.005201  -0.031813   0.002166
    12  H   -0.039813   0.363850  -0.037718   0.005517   0.005086  -0.000058
    13  H    0.005323  -0.046398   0.371626  -0.045718   0.005862   0.000204
    14  H    0.004654   0.006142  -0.037838   0.365746  -0.038953  -0.002191
    15  H   -0.031881   0.000159  -0.003386  -0.030902   0.347706   0.002059
    16  H   -0.030623   0.005009   0.004329  -0.029612   0.370306   0.006653
               7          8          9         10         11         12
     1  C    0.247461  -0.105260   0.004109   0.005709   0.361114  -0.039813
     2  C   -0.036850   0.020274  -0.006890  -0.000242  -0.034588   0.363850
     3  C   -0.019750  -0.002928   0.000621   0.000015   0.005892  -0.037718
     4  C   -0.013643   0.000075  -0.000076  -0.000065   0.005201   0.005517
     5  C   -0.044919   0.006724   0.000703  -0.000158  -0.031813   0.005086
     6  O    0.488780  -0.080394   0.002191   0.006078   0.002166  -0.000058
     7  C    4.646164   0.397386  -0.068082  -0.059114  -0.016511  -0.002226
     8  C    0.397386   5.694120   0.200406   0.205820  -0.005138   0.000463
     9  Cl  -0.068082   0.200406  16.914133  -0.064727   0.004494   0.003152
    10  Cl  -0.059114   0.205820  -0.064727  16.865967  -0.000052   0.000064
    11  H   -0.016511  -0.005138   0.004494  -0.000052   0.537860  -0.002871
    12  H   -0.002226   0.000463   0.003152   0.000064  -0.002871   0.521166
    13  H   -0.000496  -0.000073   0.000010  -0.000000  -0.000090  -0.002685
    14  H    0.000741  -0.000025   0.000001   0.000000  -0.000122  -0.000129
    15  H    0.005777  -0.000004  -0.000033   0.000000  -0.001562  -0.000113
    16  H   -0.005094   0.000279  -0.000008  -0.000004  -0.000217  -0.000116
              13         14         15         16
     1  C    0.005323   0.004654  -0.031881  -0.030623
     2  C   -0.046398   0.006142   0.000159   0.005009
     3  C    0.371626  -0.037838  -0.003386   0.004329
     4  C   -0.045718   0.365746  -0.030902  -0.029612
     5  C    0.005862  -0.038953   0.347706   0.370306
     6  O    0.000204  -0.002191   0.002059   0.006653
     7  C   -0.000496   0.000741   0.005777  -0.005094
     8  C   -0.000073  -0.000025  -0.000004   0.000279
     9  Cl   0.000010   0.000001  -0.000033  -0.000008
    10  Cl  -0.000000   0.000000   0.000000  -0.000004
    11  H   -0.000090  -0.000122  -0.001562  -0.000217
    12  H   -0.002685  -0.000129  -0.000113  -0.000116
    13  H    0.555433  -0.002914  -0.000146  -0.000107
    14  H   -0.002914   0.532786   0.001226  -0.001790
    15  H   -0.000146   0.001226   0.568804  -0.028513
    16  H   -0.000107  -0.001790  -0.028513   0.518548
 Mulliken charges:
               1
     1  C   -0.257576
     2  C   -0.081642
     3  C   -0.075105
     4  C   -0.061273
     5  C   -0.281633
     6  O   -0.499397
     7  C    0.480376
     8  C   -0.331723
     9  Cl   0.009996
    10  Cl   0.040708
    11  H    0.176236
    12  H    0.186428
    13  H    0.160171
    14  H    0.172664
    15  H    0.170810
    16  H    0.190960
 Sum of Mulliken charges =  -0.00000
 Mulliken charges with hydrogens summed into heavy atoms:
               1
     1  C   -0.081340
     2  C    0.104786
     3  C    0.085066
     4  C    0.111391
     5  C    0.080137
     6  O   -0.499397
     7  C    0.480376
     8  C   -0.331723
     9  Cl   0.009996
    10  Cl   0.040708
 APT charges:
               1
     1  C    0.079442
     2  C    0.207616
     3  C   -0.229395
     4  C    0.220853
     5  C    0.023572
     6  O   -0.509937
     7  C   -0.020976
     8  C    0.747160
     9  Cl  -0.333688
    10  Cl  -0.388937
    11  H    0.008139
    12  H    0.058381
    13  H    0.059748
    14  H    0.028494
    15  H    0.000612
    16  H    0.048915
 Sum of APT charges =   0.00000
 APT charges with hydrogens summed into heavy atoms:
               1
     1  C    0.087581
     2  C    0.265997
     3  C   -0.169647
     4  C    0.249347
     5  C    0.073099
     6  O   -0.509937
     7  C   -0.020976
     8  C    0.747160
     9  Cl  -0.333688
    10  Cl  -0.388937
 Electronic spatial extent (au):  <R**2>=           1890.7851
 Charge=             -0.0000 electrons
 Dipole moment (field-independent basis, Debye):
    X=             -4.4532    Y=              2.3339    Z=              0.3671  Tot=              5.0411
 Quadrupole moment (field-independent basis, Debye-Ang):
   XX=            -64.5000   YY=            -73.0605   ZZ=            -67.1500
   XY=              0.3528   XZ=             -0.6090   YZ=             -0.6548
 Traceless Quadrupole moment (field-independent basis, Debye-Ang):
   XX=              3.7369   YY=             -4.8237   ZZ=              1.0868
   XY=              0.3528   XZ=             -0.6090   YZ=             -0.6548
 Octapole moment (field-independent basis, Debye-Ang**2):
  XXX=            -18.0097  YYY=              5.2992  ZZZ=              2.4565  XYY=              3.7209
  XXY=            -13.1154  XXZ=             -0.5993  XZZ=             -5.1353  YZZ=              0.4116
  YYZ=              1.6871  XYZ=              1.8115
 Hexadecapole moment (field-independent basis, Debye-Ang**3):
 XXXX=          -1563.3022 YYYY=           -555.5382 ZZZZ=           -244.6765 XXXY=             32.1357
 XXXZ=              9.2160 YYYX=              6.2305 YYYZ=             -3.4582 ZZZX=             -7.2666
 ZZZY=              3.1999 XXYY=           -341.8112 XXZZ=           -300.6591 YYZZ=           -135.1328
 XXYZ=             -9.1871 YYXZ=              1.6157 ZZXY=              1.8245
 N-N= 6.803098255786D+02 E-N=-4.351179283604D+03  KE= 1.259823821887D+03
  Exact polarizability: 168.298   0.204  91.876  -3.122   2.789  70.273
 Approx polarizability: 324.133  -4.487 178.094 -13.294  19.846 115.998
 Calling FoFJK, ICntrl=    100127 FMM=F ISym2X=0 I1Cent= 0 IOpClX= 0 NMat=1 NMatS=1 NMatT=0.
 Full mass-weighted force constant matrix:
 Low frequencies --- -120.4938   -1.4409    0.0016    0.0029    0.0038    3.6550
 Low frequencies ---    4.7911   70.8853  112.9167
 ******    1 imaginary frequencies (negative Signs) ****** 
 Diagonal vibrational polarizability:
       35.5027781      17.4299899       9.6667126
 Harmonic frequencies (cm**-1), IR intensities (KM/Mole), Raman scattering
 activities (A**4/AMU), depolarization ratios for plane and unpolarized
 incident light, reduced masses (AMU), force constants (mDyne/A),
 and normal coordinates:
                           1         2         3         4         5
                           A         A         A         A         A
       Frequencies ---  -120.4936   70.8852  112.9167  167.6777  246.1208
    Reduced masses ---     4.9176    8.1126    5.1562    9.3967   11.3208
   Force constants ---     0.0421    0.0240    0.0387    0.1557    0.4040
    IR Intensities ---     6.6553    3.1735    2.8847    0.7947    3.7167
 Coord Atom Element:
   1     1     6          0.00547  -0.03729  -0.00992  -0.16243  -0.17138
   2     1     6          0.08661   0.05562  -0.02866  -0.03686   0.01719
   3     1     6          0.05994  -0.00980  -0.18046  -0.02918  -0.01513
   1     2     6         -0.16655   0.14041   0.09199  -0.18144  -0.21561
   2     2     6          0.07851  -0.11059   0.14234   0.01898   0.09939
   3     2     6          0.05017   0.06180  -0.17483  -0.04342  -0.02595
   1     3     6         -0.00182   0.22859   0.19934  -0.12232  -0.13919
   2     3     6         -0.06429  -0.18989   0.13242  -0.03094   0.07336
   3     3     6         -0.03137   0.07018   0.01992   0.02717   0.04995
   1     4     6          0.31592   0.11445   0.18032  -0.12500  -0.06740
   2     4     6         -0.22266  -0.08069  -0.05975  -0.10301  -0.05784
   3     4     6         -0.10574   0.04175   0.13179   0.09408   0.08423
   1     5     6          0.07306  -0.09652  -0.04583  -0.08485  -0.22609
   2     5     6          0.01850   0.09321  -0.12650  -0.24316  -0.00902
   3     5     6         -0.03298   0.07898   0.01764   0.01791   0.06555
   1     6     8         -0.16794   0.01314  -0.04028   0.24730  -0.21693
   2     6     8          0.10925   0.06075  -0.00430   0.06492   0.02847
   3     6     8          0.17062  -0.30113  -0.02500  -0.02446  -0.19095
   1     7     6         -0.02493  -0.02232  -0.01382   0.02353  -0.07744
   2     7     6          0.10028   0.07653   0.00067   0.14687  -0.01455
   3     7     6          0.06074  -0.20425  -0.10499   0.00567  -0.14563
   1     8     6          0.00127  -0.05132  -0.03122   0.02602  -0.02097
   2     8     6         -0.00377   0.04500  -0.01475   0.17710  -0.11145
   3     8     6         -0.09334  -0.03826  -0.08192   0.06152  -0.19010
   1     9    17          0.04029   0.03165  -0.06517   0.30969   0.17779
   2     9    17         -0.01159   0.00639   0.01140   0.05942  -0.19285
   3     9    17         -0.03657  -0.11631   0.18317   0.02970   0.06353
   1    10    17         -0.04018  -0.13900  -0.05469  -0.18320   0.27149
   2    10    17         -0.03299   0.00821  -0.02275  -0.04529   0.17245
   3    10    17         -0.00917   0.24081  -0.03963  -0.06512   0.07530
   1    11     1         -0.00395  -0.13091  -0.06905  -0.28033  -0.24081
   2    11     1          0.11919   0.12998  -0.09005  -0.00443   0.03899
   3    11     1          0.10438   0.03634  -0.31865  -0.07349  -0.03829
   1    12     1         -0.28938   0.19179   0.10870  -0.25939  -0.27547
   2    12     1          0.14196  -0.15371   0.25489   0.12578   0.19116
   3    12     1          0.09254   0.06103  -0.30555  -0.08572  -0.06610
   1    13     1         -0.04399   0.37535   0.31493  -0.11175  -0.13627
   2    13     1         -0.13104  -0.32345   0.23229   0.04367   0.14540
   3    13     1         -0.05842   0.07357   0.07254   0.04845   0.06880
   1    14     1          0.51628   0.14829   0.26621  -0.09037   0.02078
   2    14     1         -0.36802  -0.10531  -0.12118  -0.12912  -0.12213
   3    14     1         -0.16676   0.02389   0.29076   0.16221   0.13675
   1    15     1         -0.04268  -0.15687  -0.11384  -0.13809  -0.26411
   2    15     1         -0.04817   0.09465  -0.18036  -0.35084  -0.00302
   3    15     1          0.14992   0.28323   0.07619  -0.15214   0.20730
   1    16     1          0.11494  -0.19789  -0.12446   0.02546  -0.31911
   2    16     1          0.18011   0.20634  -0.17838  -0.36021   0.04036
   3    16     1         -0.14006  -0.02377   0.04044   0.12517   0.01386
                           6         7         8         9        10
                           A         A         A         A         A
       Frequencies ---   286.1583  314.1142  378.9665  443.7204  448.6641
    Reduced masses ---     6.5962   11.3751    6.6579    2.4896    8.7310
   Force constants ---     0.3182    0.6613    0.5634    0.2888    1.0355
    IR Intensities ---     5.1075   11.0231    6.5373   11.4232    4.9173
 Coord Atom Element:
   1     1     6         -0.03107  -0.00463   0.16695  -0.05074   0.10433
   2     1     6         -0.04463   0.03120  -0.08874   0.07016  -0.19738
   3     1     6         -0.11398  -0.08154   0.12297   0.00294  -0.01113
   1     2     6          0.17731   0.03828   0.06791   0.06678   0.10759
   2     2     6         -0.18781   0.05966  -0.02328  -0.05829  -0.15544
   3     2     6         -0.06863  -0.08003   0.12749   0.03346   0.00583
   1     3     6          0.14455   0.14161  -0.11155   0.03869  -0.15752
   2     3     6         -0.16291  -0.04268   0.13992  -0.03319   0.13681
   3     3     6         -0.06307  -0.04623   0.04633   0.02495   0.00770
   1     4     6         -0.10048   0.11140   0.11012  -0.05637   0.05832
   2     4     6          0.04401  -0.05465   0.00794   0.04419  -0.08128
   3     4     6         -0.08271  -0.01854   0.02099   0.02174   0.02475
   1     5     6         -0.10437  -0.01325   0.25126   0.09908  -0.00574
   2     5     6          0.07178   0.00140  -0.08289  -0.15857  -0.05815
   3     5     6         -0.06828  -0.03680   0.01067  -0.05661   0.02612
   1     6     8         -0.13494  -0.05497  -0.00954  -0.12962  -0.37013
   2     6     8         -0.04826   0.03688  -0.12470   0.15432  -0.03439
   3     6     8          0.31327  -0.08600  -0.11070  -0.02567  -0.12327
   1     7     6         -0.08386  -0.10775  -0.05127  -0.01985  -0.03966
   2     7     6         -0.05064   0.01701  -0.07860   0.09409  -0.14171
   3     7     6          0.02256   0.12967  -0.02808   0.01390  -0.03639
   1     8     6         -0.06324  -0.23027  -0.09928   0.00943  -0.04026
   2     8     6          0.04714   0.02608   0.00266  -0.00415  -0.01050
   3     8     6         -0.12623   0.77310  -0.13940  -0.01008   0.17442
   1     9    17          0.13351   0.03042   0.03235  -0.01555   0.12264
   2     9    17         -0.00812  -0.16098  -0.10014  -0.01551   0.26991
   3     9    17          0.05909  -0.05875   0.01267  -0.00140  -0.01558
   1    10    17         -0.05702   0.00615  -0.16347   0.03085   0.03698
   2    10    17          0.13801   0.13233   0.20411  -0.01600  -0.07585
   3    10    17         -0.01807  -0.11210  -0.02483   0.00773  -0.00020
   1    11     1          0.03469   0.04413   0.22212  -0.10947   0.14351
   2    11     1         -0.06210  -0.03286  -0.09502   0.10722  -0.19952
   3    11     1         -0.09161  -0.14473   0.15433   0.01797   0.01416
   1    12     1          0.36244  -0.01725   0.07030   0.18175   0.24777
   2    12     1         -0.34796   0.14415  -0.04880  -0.16683  -0.25403
   3    12     1         -0.06633  -0.12214   0.15355   0.04584  -0.01420
   1    13     1          0.30655   0.26042  -0.35901   0.08933  -0.35522
   2    13     1         -0.31375  -0.09355   0.27719  -0.09141   0.33578
   3    13     1         -0.06139  -0.03007   0.02016   0.02312   0.00812
   1    14     1         -0.22252   0.16942   0.11198  -0.13518   0.10921
   2    14     1          0.13237  -0.09493   0.00713   0.09950  -0.11907
   3    14     1         -0.10255   0.00831   0.00256   0.05325   0.05516
   1    15     1         -0.05861  -0.04341   0.25703   0.05198   0.04627
   2    15     1          0.13681  -0.00927  -0.13945  -0.35035   0.06163
   3    15     1         -0.01371   0.03823  -0.17573  -0.50151   0.23212
   1    16     1         -0.20695  -0.04051   0.42049   0.41152  -0.17800
   2    16     1          0.08366   0.04224  -0.16498  -0.40919   0.03225
   3    16     1         -0.10247  -0.07261   0.10749   0.18832  -0.06908
                          11        12        13        14        15
                           A         A         A         A         A
       Frequencies ---   522.1988  622.4634  637.9002  747.2445  768.3777
    Reduced masses ---     3.3463    3.8930    5.4627    2.0054    3.6390
   Force constants ---     0.5376    0.8887    1.3097    0.6597    1.2658
    IR Intensities ---     6.4135   12.7898    8.1924    6.2826   36.3682
 Coord Atom Element:
   1     1     6          0.02061  -0.18396  -0.13688   0.05131   0.01053
   2     1     6          0.00626   0.21348   0.09323  -0.16458   0.15033
   3     1     6          0.05990   0.03512   0.00193  -0.02024  -0.03414
   1     2     6         -0.14328   0.04021   0.08787  -0.08234  -0.08578
   2     2     6          0.17544   0.02061   0.01396   0.00727  -0.01775
   3     2     6         -0.00561   0.08450  -0.03016   0.04334  -0.15100
   1     3     6          0.18262  -0.04634  -0.02507  -0.03201  -0.09634
   2     3     6         -0.14247   0.07248   0.08587   0.01759  -0.00603
   3     3     6          0.03093   0.01143  -0.06444   0.11143   0.00643
   1     4     6         -0.05964   0.09000   0.05720   0.01960  -0.07624
   2     4     6          0.07938   0.04334  -0.02622   0.11698  -0.01327
   3     4     6         -0.00089  -0.02275  -0.01918   0.00678   0.06640
   1     5     6          0.07662  -0.02291  -0.08435  -0.06393   0.04482
   2     5     6          0.00305   0.03348   0.00978   0.03740   0.03808
   3     5     6         -0.01776  -0.06081  -0.04601  -0.11706   0.10304
   1     6     8         -0.08539   0.06206   0.05192   0.01684  -0.08136
   2     6     8         -0.12564  -0.18082  -0.07865   0.02231   0.00881
   3     6     8         -0.06782   0.07668  -0.16393   0.00134  -0.01166
   1     7     6         -0.04101  -0.05585  -0.12379  -0.01934   0.24225
   2     7     6         -0.13455  -0.11176  -0.02299   0.05073  -0.16053
   3     7     6          0.06266  -0.21129   0.50800  -0.01901   0.00165
   1     8     6         -0.03602  -0.12074   0.00175  -0.00178   0.17930
   2     8     6         -0.03384  -0.01681  -0.01346   0.01304  -0.05001
   3     8     6         -0.02801   0.05958  -0.13348   0.00284   0.04882
   1     9    17          0.04115   0.02591   0.01629  -0.00336  -0.00707
   2     9    17          0.07320   0.04013   0.01700  -0.00460  -0.00843
   3     9    17         -0.00280   0.00106  -0.00479   0.00022  -0.00339
   1    10    17         -0.00647   0.03192   0.00889   0.00680  -0.06397
   2    10    17         -0.00286  -0.02879  -0.00760  -0.00428   0.04772
   3    10    17          0.00433   0.00157   0.01043  -0.00003  -0.00952
   1    11     1          0.12153  -0.16571   0.09059   0.08799  -0.00311
   2    11     1         -0.08619   0.24501  -0.07341  -0.13764   0.16920
   3    11     1         -0.00496   0.09873  -0.08419   0.04348  -0.01866
   1    12     1         -0.42937   0.24559   0.47159   0.15585   0.19394
   2    12     1          0.44676  -0.18984  -0.34328  -0.14748  -0.37440
   3    12     1         -0.03620   0.12631   0.00805   0.00063  -0.02234
   1    13     1          0.32482   0.03113   0.21827   0.30939   0.47433
   2    13     1         -0.28170  -0.09776  -0.08048  -0.36680  -0.23473
   3    13     1          0.03128  -0.01067  -0.04632   0.10422   0.09123
   1    14     1         -0.19416   0.34152   0.31318   0.57889   0.36243
   2    14     1          0.17747  -0.13708  -0.20870  -0.28891  -0.33203
   3    14     1         -0.02076  -0.02141   0.05214   0.00060  -0.05452
   1    15     1          0.13453  -0.22618  -0.17512   0.10997   0.05010
   2    15     1         -0.01477  -0.28314  -0.08811   0.14766   0.00491
   3    15     1         -0.25425  -0.36370  -0.05705  -0.30933  -0.01733
   1    16     1          0.19568   0.34940   0.04218  -0.09870   0.07649
   2    16     1         -0.13181  -0.09543   0.04680  -0.18650  -0.03119
   3    16     1          0.10314   0.10354  -0.04659   0.03610   0.16427
                          16        17        18        19        20
                           A         A         A         A         A
       Frequencies ---   812.3264  828.2380  884.1673  913.2658  948.9304
    Reduced masses ---     5.9977    2.5613    1.5115    8.0883    1.8830
   Force constants ---     2.3318    1.0352    0.6962    3.9747    0.9990
    IR Intensities ---     9.9335    9.5467   12.5350  113.8275   14.2795
 Coord Atom Element:
   1     1     6          0.07076  -0.09242   0.03788  -0.17436   0.13430
   2     1     6          0.08870   0.02466   0.02721  -0.10397   0.04919
   3     1     6         -0.20379  -0.05440   0.03594   0.09023  -0.01281
   1     2     6         -0.14181   0.00355   0.11505  -0.00392  -0.05327
   2     2     6         -0.14811  -0.16359  -0.07041   0.03123   0.02536
   3     2     6         -0.21972  -0.04517  -0.02556  -0.02038  -0.01875
   1     3     6         -0.11668   0.00094  -0.01164  -0.00138   0.05716
   2     3     6         -0.07463  -0.04080   0.00654   0.03534  -0.05317
   3     3     6          0.16460   0.17273  -0.05973  -0.00334   0.00298
   1     4     6          0.01995   0.12914  -0.10130   0.05104  -0.02248
   2     4     6         -0.00428   0.09092  -0.02032   0.05669  -0.08536
   3     4     6          0.12443   0.02918   0.01130  -0.04882   0.06116
   1     5     6          0.26740  -0.02777  -0.02175   0.09963  -0.11348
   2     5     6          0.12016   0.05575   0.02534  -0.02226   0.07624
   3     5     6          0.14256  -0.12839   0.04471   0.03048  -0.05771
   1     6     8          0.06286  -0.01575  -0.00237  -0.11104  -0.01300
   2     6     8         -0.03280  -0.00916   0.00754  -0.04528  -0.01669
   3     6     8          0.00707  -0.01601   0.00491  -0.03174  -0.00352
   1     7     6         -0.22975   0.08045  -0.03304   0.14775   0.01404
   2     7     6          0.09848  -0.05404   0.00039  -0.14823  -0.01531
   3     7     6          0.01246   0.07052   0.00607   0.00504   0.00231
   1     8     6         -0.21584   0.07485  -0.03382  -0.03858  -0.00414
   2     8     6          0.06094  -0.01085   0.04813   0.67508   0.11463
   3     8     6         -0.05479   0.00979  -0.01979  -0.03745  -0.00583
   1     9    17          0.01023  -0.00322  -0.00100  -0.02584  -0.00596
   2     9    17          0.00912  -0.00456  -0.00477  -0.09338  -0.01440
   3     9    17          0.00141  -0.00088   0.00085   0.00818   0.00096
   1    10    17          0.05859  -0.01856   0.01031   0.04249   0.00675
   2    10    17         -0.04567   0.01346  -0.01026  -0.06773  -0.01076
   3    10    17          0.00939  -0.00362   0.00237   0.00728   0.00077
   1    11     1          0.14772  -0.06850   0.02529  -0.27217   0.41867
   2    11     1          0.08851   0.19104   0.06165  -0.15178   0.00220
   3    11     1         -0.14835   0.22026   0.08091  -0.04675   0.11229
   1    12     1          0.04646  -0.33671  -0.45211   0.20919   0.05517
   2    12     1         -0.28976   0.41518   0.49579  -0.00955  -0.31752
   3    12     1         -0.24135  -0.35484  -0.12689  -0.16412   0.24699
   1    13     1          0.18897  -0.42406   0.05235   0.12244  -0.26578
   2    13     1          0.06280   0.27438   0.05877  -0.19798   0.46167
   3    13     1          0.27350   0.14538  -0.03126  -0.03224   0.04975
   1    14     1         -0.07491  -0.02304   0.46012  -0.03833  -0.06968
   2    14     1          0.06661   0.20151  -0.42911   0.12708  -0.05842
   3    14     1         -0.28064  -0.05203   0.01116  -0.07795   0.15678
   1    15     1          0.25352  -0.10838   0.08684   0.15962  -0.21978
   2    15     1          0.10554  -0.03050   0.06447   0.11112  -0.14356
   3    15     1          0.15436  -0.13461  -0.16897   0.22856  -0.36210
   1    16     1          0.17184  -0.04272   0.12105   0.04904   0.11587
   2    16     1          0.07296  -0.04894  -0.05098   0.19219  -0.13516
   3    16     1          0.16318  -0.06003   0.12950  -0.12753   0.13345
                          21        22        23        24        25
                           A         A         A         A         A
       Frequencies ---   965.9978  971.8519  990.9748 1046.1056 1105.1892
    Reduced masses ---     1.5275    1.7622    1.9667    1.8671    1.2061
   Force constants ---     0.8398    0.9806    1.1380    1.2039    0.8680
    IR Intensities ---     7.0532    4.6871   14.9830   47.8917    6.9350
 Coord Atom Element:
   1     1     6         -0.10251   0.03842  -0.07233   0.02473  -0.00288
   2     1     6         -0.05990   0.02769  -0.13723  -0.01013  -0.02132
   3     1     6          0.03994  -0.10389   0.03475   0.15905  -0.00510
   1     2     6         -0.02956   0.00099   0.01335  -0.05532  -0.04131
   2     2     6          0.04462   0.02543  -0.00172  -0.03152  -0.06419
   3     2     6         -0.03287   0.05368  -0.04362  -0.13028   0.01393
   1     3     6          0.10567   0.01349  -0.02637   0.04625   0.05550
   2     3     6         -0.05664  -0.06851   0.02370   0.01019   0.06654
   3     3     6          0.00902  -0.01245  -0.03473  -0.05599  -0.02901
   1     4     6         -0.07337   0.03703   0.08071   0.03635   0.02127
   2     4     6          0.00376   0.12736  -0.05631   0.08666   0.00379
   3     4     6         -0.00488  -0.07245  -0.03774  -0.05071  -0.03001
   1     5     6          0.06359  -0.03042  -0.05349  -0.03685  -0.00994
   2     5     6          0.03215  -0.04237   0.15294  -0.07163  -0.00592
   3     5     6          0.00610   0.13998   0.12810   0.05579   0.00192
   1     6     8          0.00439  -0.00993   0.00426   0.01596  -0.00294
   2     6     8          0.01419  -0.01073   0.02054   0.01734  -0.02827
   3     6     8          0.00410  -0.00583  -0.00016   0.00331  -0.00324
   1     7     6         -0.00112   0.00385   0.01002  -0.01150   0.00239
   2     7     6          0.00400  -0.01314   0.02250   0.01240   0.01323
   3     7     6         -0.00521   0.02716  -0.00801  -0.01259   0.01865
   1     8     6          0.00041   0.00917   0.03464  -0.05622   0.00325
   2     8     6         -0.04538   0.02208  -0.03011  -0.01527   0.00251
   3     8     6          0.00524  -0.00255   0.01150  -0.00652   0.00316
   1     9    17          0.00281  -0.00053  -0.00014   0.00138   0.00061
   2     9    17          0.00526  -0.00271   0.00174   0.00268   0.00017
   3     9    17         -0.00029   0.00017   0.00012  -0.00070  -0.00024
   1    10    17         -0.00286   0.00012  -0.00401   0.00407  -0.00008
   2    10    17          0.00444  -0.00127   0.00498  -0.00225   0.00009
   3    10    17         -0.00020  -0.00037  -0.00110   0.00131  -0.00065
   1    11     1         -0.24854  -0.09598  -0.03007   0.22157  -0.41041
   2    11     1         -0.04022  -0.04837  -0.25597   0.21525   0.19586
   3    11     1         -0.02901  -0.32140  -0.10353   0.65776   0.03369
   1    12     1          0.32030  -0.05832   0.04918   0.20909  -0.32121
   2    12     1         -0.16956  -0.05811   0.08018  -0.09163  -0.20864
   3    12     1         -0.11609   0.19770  -0.16477  -0.31272   0.39418
   1    13     1         -0.42318  -0.47872   0.10988   0.05896   0.40345
   2    13     1          0.47668  -0.00960  -0.02626   0.10108   0.42549
   3    13     1          0.00719  -0.12208  -0.01457  -0.04112   0.13891
   1    14     1          0.31244   0.27947  -0.24203   0.06894  -0.04344
   2    14     1         -0.27764  -0.03805   0.18068   0.07248   0.05311
   3    14     1         -0.01278  -0.38725  -0.26543  -0.17943  -0.14985
   1    15     1          0.24387  -0.10625  -0.11692  -0.13622   0.16443
   2    15     1          0.20693  -0.14035  -0.11472  -0.13860   0.14965
   3    15     1         -0.03861   0.06993  -0.43569   0.16526  -0.07875
   1    16     1          0.16675  -0.23224   0.46668  -0.23883  -0.10111
   2    16     1          0.16379  -0.33212  -0.11074  -0.21920  -0.11227
   3    16     1         -0.06519   0.31140   0.42252   0.12795   0.05928
                          26        27        28        29        30
                           A         A         A         A         A
       Frequencies ---  1117.1692 1152.5682 1192.2709 1286.5157 1313.0442
    Reduced masses ---     1.3259    1.3344    1.2893    2.2265    1.3038
   Force constants ---     0.9750    1.0444    1.0798    2.1712    1.3244
    IR Intensities ---     7.9623   11.3442    9.0424   21.7034    2.0679
 Coord Atom Element:
   1     1     6          0.00723   0.07222  -0.08312  -0.14112  -0.03893
   2     1     6         -0.01393   0.02469   0.06986  -0.06266  -0.03453
   3     1     6         -0.00726  -0.02805   0.04780  -0.11953  -0.07249
   1     2     6         -0.04026   0.02997   0.01798   0.00408   0.03199
   2     2     6         -0.04203   0.06973  -0.00970   0.02420   0.03747
   3     2     6         -0.03685   0.02829  -0.00810   0.08885  -0.04297
   1     3     6          0.00393  -0.02852  -0.01992   0.02606   0.02852
   2     3     6         -0.01290  -0.00464  -0.01314   0.02139   0.03790
   3     3     6         -0.10393   0.03561  -0.00691  -0.08202   0.01648
   1     4     6          0.07096  -0.00827   0.04946  -0.04286   0.00487
   2     4     6          0.05085  -0.09969  -0.02460  -0.05133   0.00267
   3     4     6          0.05253  -0.01189   0.01352   0.05219   0.06483
   1     5     6         -0.00391  -0.03529  -0.01938   0.15476  -0.05378
   2     5     6          0.02955   0.00111  -0.03135   0.10494  -0.06326
   3     5     6          0.03642  -0.00267  -0.00707  -0.01570   0.03050
   1     6     8         -0.00003  -0.00852   0.01561  -0.01619   0.00096
   2     6     8         -0.00599  -0.03939   0.03686  -0.02894   0.00593
   3     6     8         -0.00084  -0.00337   0.00355  -0.00309  -0.00035
   1     7     6         -0.00499  -0.00451   0.02518  -0.04125  -0.00236
   2     7     6          0.00210   0.01199  -0.02917   0.02826  -0.00594
   3     7     6          0.00987   0.01799  -0.01882  -0.01134   0.00255
   1     8     6         -0.01025   0.00552  -0.03890   0.09563   0.00337
   2     8     6         -0.00354   0.01645  -0.01291   0.01457  -0.00107
   3     8     6         -0.00215   0.00029  -0.00706   0.01828   0.00006
   1     9    17          0.00100  -0.00070   0.00151  -0.00352  -0.00022
   2     9    17          0.00114  -0.00126   0.00178  -0.00384   0.00010
   3     9    17         -0.00012   0.00005  -0.00023   0.00036   0.00000
   1    10    17          0.00101   0.00056   0.00032  -0.00347  -0.00016
   2    10    17         -0.00063  -0.00122  -0.00018   0.00258   0.00015
   3    10    17          0.00002  -0.00035   0.00084  -0.00059  -0.00001
   1    11     1         -0.22755  -0.38064   0.44213   0.37641   0.20974
   2    11     1          0.14446   0.39380  -0.33023   0.10535   0.16654
   3    11     1          0.06635   0.19159  -0.17722   0.51552   0.41168
   1    12     1         -0.09295   0.33351  -0.04358  -0.01649  -0.19451
   2    12     1         -0.11971   0.14848  -0.02315   0.05384  -0.13001
   3    12     1          0.07762  -0.29788   0.05637   0.07948   0.32843
   1    13     1         -0.26499  -0.10521  -0.00354   0.02499  -0.20980
   2    13     1         -0.29105  -0.13558   0.07244   0.00849  -0.28191
   3    13     1         -0.24872  -0.00661   0.01706  -0.09099  -0.11975
   1    14     1          0.01270  -0.17726  -0.06635   0.01478  -0.01102
   2    14     1          0.10496   0.01234   0.06182  -0.09667   0.01674
   3    14     1          0.73200  -0.18276  -0.06091   0.03290  -0.39873
   1    15     1          0.19510   0.30080   0.48134  -0.10966   0.19282
   2    15     1          0.17902   0.27447   0.43787  -0.12783   0.16140
   3    15     1         -0.11342  -0.22657  -0.16713   0.12632  -0.06145
   1    16     1          0.03813  -0.20168  -0.30331  -0.44893   0.32378
   2    16     1         -0.06054  -0.21618  -0.25211  -0.38523   0.28299
   3    16     1          0.11469   0.11478   0.09516   0.21844  -0.14196
                          31        32        33        34        35
                           A         A         A         A         A
       Frequencies ---  1320.3738 1381.1817 1466.2106 1486.1826 1509.0249
    Reduced masses ---     5.3757    2.3582    2.7732    1.2036    2.9469
   Force constants ---     5.5218    2.6505    3.5125    1.5663    3.9538
    IR Intensities ---   115.7735   23.1062   86.7948   12.5082    3.9582
 Coord Atom Element:
   1     1     6          0.00112   0.01758   0.00559  -0.00177   0.04046
   2     1     6          0.09687  -0.00265   0.04676   0.01218   0.02662
   3     1     6          0.03873   0.17018   0.02966  -0.00072  -0.02482
   1     2     6         -0.05238   0.07212  -0.10331  -0.00898  -0.13728
   2     2     6         -0.06946   0.03519  -0.13295  -0.01644  -0.11239
   3     2     6         -0.00748  -0.15100  -0.00145  -0.00868   0.16661
   1     3     6          0.01235  -0.01735   0.18786   0.03721   0.05584
   2     3     6         -0.00597  -0.01572   0.23022   0.04767   0.02984
   3     3     6         -0.00444  -0.01545   0.08569   0.03861  -0.20558
   1     4     6          0.02579   0.00973  -0.08030  -0.03169   0.02243
   2     4     6          0.05908  -0.01008  -0.08789  -0.02852   0.04051
   3     4     6         -0.05813   0.16562  -0.07123  -0.03840   0.24292
   1     5     6         -0.07216   0.04729   0.04171  -0.03050  -0.03555
   2     5     6         -0.11456   0.05811   0.02226   0.01628  -0.00981
   3     5     6          0.06708  -0.12211   0.04722  -0.07265  -0.05539
   1     6     8         -0.07695  -0.01096  -0.00724  -0.00457   0.00366
   2     6     8         -0.22400  -0.02901  -0.03739  -0.01605   0.01541
   3     6     8         -0.00601   0.00104  -0.00460  -0.00052  -0.00059
   1     7     6         -0.21879  -0.07526   0.05936   0.03089   0.02232
   2     7     6          0.23593   0.03894   0.05389   0.02395  -0.02874
   3     7     6         -0.07660  -0.02266   0.00970   0.00458   0.00553
   1     8     6          0.38467   0.07774  -0.03522  -0.01925  -0.02449
   2     8     6          0.07628   0.00941  -0.00539  -0.00399   0.00002
   3     8     6          0.07901   0.01452   0.00039  -0.00076  -0.00714
   1     9    17         -0.01497  -0.00211   0.00039   0.00026   0.00085
   2     9    17         -0.01704  -0.00211   0.00019   0.00034   0.00087
   3     9    17          0.00079   0.00032  -0.00062  -0.00034  -0.00010
   1    10    17         -0.01222  -0.00168   0.00076   0.00049   0.00036
   2    10    17          0.00901   0.00155  -0.00040  -0.00028  -0.00063
   3    10    17         -0.00108   0.00040  -0.00059  -0.00022   0.00005
   1    11     1          0.36713  -0.38068   0.07593   0.02307  -0.03247
   2    11     1         -0.18312  -0.11908  -0.14873  -0.01945  -0.04892
   3    11     1         -0.13612  -0.27653  -0.21365  -0.03715  -0.20662
   1    12     1          0.11067  -0.18833  -0.07855  -0.02593   0.25495
   2    12     1          0.04972  -0.16625  -0.08005  -0.02589   0.16044
   3    12     1         -0.28977   0.27084  -0.12365   0.01168  -0.47669
   1    13     1          0.07599  -0.23768  -0.35696  -0.08267   0.07712
   2    13     1          0.13857  -0.26800  -0.48131  -0.11552   0.06715
   3    13     1          0.03971  -0.13299  -0.22589  -0.02613  -0.23405
   1    14     1          0.05684  -0.00258  -0.06411  -0.03362   0.02866
   2    14     1          0.05084  -0.00332  -0.12567  -0.04136   0.05740
   3    14     1          0.11683  -0.43277  -0.05554   0.02758  -0.56010
   1    15     1          0.30411  -0.16056  -0.05166   0.00045   0.01257
   2    15     1          0.25982  -0.09675  -0.17808   0.25150   0.08846
   3    15     1          0.00111   0.06568  -0.35644   0.63386   0.09203
   1    16     1          0.29017  -0.29440  -0.35104   0.45205   0.22919
   2    16     1          0.20574  -0.21463   0.10354  -0.40550   0.06483
   3    16     1         -0.08078  -0.00113  -0.10035   0.34677  -0.05768
                          36        37        38        39        40
                           A         A         A         A         A
       Frequencies ---  1619.5378 3037.3157 3169.4093 3180.6237 3236.8453
    Reduced masses ---    10.8097    1.0712    1.0921    1.0893    1.0888
   Force constants ---    16.7050    5.8224    6.4636    6.4927    6.7211
    IR Intensities ---    75.4134   14.5022    3.4814    4.2919    6.0831
 Coord Atom Element:
   1     1     6         -0.06086  -0.00096  -0.00300  -0.03230   0.00090
   2     1     6         -0.02770  -0.00065  -0.00748  -0.06549   0.00167
   3     1     6         -0.00335   0.00154   0.00512   0.04424  -0.00124
   1     2     6          0.09210  -0.00027   0.00031   0.00318   0.01161
   2     2     6          0.06102  -0.00071   0.00008   0.00286   0.01477
   3     2     6         -0.02288   0.00036   0.00028   0.00126   0.01647
   1     3     6         -0.10505   0.00083   0.00010   0.00027   0.01742
   2     3     6         -0.13557   0.00060  -0.00024  -0.00002   0.01653
   3     3     6         -0.07211  -0.00000   0.00043  -0.00045  -0.06776
   1     4     6         -0.01027  -0.00056   0.00273  -0.00013  -0.02328
   2     4     6          0.06809   0.00128   0.00244  -0.00037  -0.03188
   3     4     6          0.10745  -0.00011   0.00074  -0.00035   0.00190
   1     5     6          0.00989  -0.05378   0.02224   0.00006   0.00060
   2     5     6         -0.00057   0.04477  -0.05539   0.00592  -0.00109
   3     5     6          0.00034  -0.02934  -0.06323   0.00820  -0.00239
   1     6     8         -0.14549  -0.00007   0.00054   0.00006  -0.00015
   2     6     8         -0.33284  -0.00028   0.00042   0.00047  -0.00001
   3     6     8         -0.01566  -0.00010   0.00038   0.00006   0.00002
   1     7     6          0.50327   0.00079  -0.00072  -0.00031   0.00051
   2     7     6          0.54671   0.00043  -0.00103  -0.00032  -0.00000
   3     7     6          0.06346   0.00032  -0.00008  -0.00002   0.00014
   1     8     6         -0.28249   0.00003   0.00012  -0.00022  -0.00027
   2     8     6         -0.07812  -0.00004   0.00003  -0.00043   0.00004
   3     8     6         -0.02524  -0.00009   0.00006  -0.00010  -0.00011
   1     9    17          0.00146  -0.00002  -0.00001  -0.00010   0.00002
   2     9    17          0.00388  -0.00002   0.00001   0.00013   0.00002
   3     9    17         -0.00435  -0.00000  -0.00001  -0.00007  -0.00000
   1    10    17          0.00983  -0.00002  -0.00001   0.00003   0.00001
   2    10    17         -0.00575   0.00000   0.00002   0.00000  -0.00002
   3    10    17         -0.00172   0.00000   0.00000   0.00003   0.00000
   1    11     1          0.16434   0.00862   0.04015   0.36532  -0.00829
   2    11     1         -0.10379   0.01878   0.08894   0.76693  -0.01696
   3    11     1          0.03536  -0.01640  -0.05901  -0.50386   0.01200
   1    12     1         -0.00838   0.00116   0.00033  -0.03234  -0.15316
   2    12     1          0.07060   0.00145   0.00139  -0.03688  -0.18572
   3    12     1          0.08680   0.00052   0.00163  -0.03287  -0.18238
   1    13     1          0.09787  -0.00200   0.00071  -0.00033  -0.19339
   2    13     1          0.14306  -0.00034   0.00105  -0.00008  -0.19021
   3    13     1          0.04058   0.00309  -0.00224   0.00191   0.78092
   1    14     1          0.07512  -0.00672  -0.02985   0.00857   0.27322
   2    14     1          0.02410  -0.00737  -0.03761   0.01159   0.37695
   3    14     1         -0.05013  -0.00338  -0.00248  -0.00014  -0.00268
   1    15     1         -0.06165   0.68698  -0.11582  -0.00620  -0.00171
   2    15     1         -0.09052  -0.66700   0.10644   0.00286   0.00100
   3    15     1         -0.11330   0.20700  -0.04589  -0.00112   0.00006
   1    16     1         -0.09532  -0.04357  -0.16254   0.01749  -0.00481
   2    16     1          0.13818   0.11552   0.56545  -0.06747   0.01484
   3    16     1         -0.10783   0.13599   0.77718  -0.09201   0.02267
                          41        42
                           A         A
       Frequencies ---  3253.5235 3262.5103
    Reduced masses ---     1.0947    1.1014
   Force constants ---     6.8273    6.9072
    IR Intensities ---     5.3881    1.1445
 Coord Atom Element:
   1     1     6         -0.00039  -0.00237
   2     1     6         -0.00108  -0.00303
   3     1     6          0.00211   0.00414
   1     2     6         -0.02249  -0.03783
   2     2     6         -0.02812  -0.04614
   3     2     6         -0.02733  -0.04039
   1     3     6         -0.00303   0.01247
   2     3     6         -0.00194   0.01152
   3     3     6          0.02466  -0.04361
   1     4     6         -0.04241   0.01906
   2     4     6         -0.05841   0.02684
   3     4     6         -0.00225   0.00266
   1     5     6          0.00100   0.00010
   2     5     6         -0.00040   0.00059
   3     5     6         -0.00382   0.00295
   1     6     8          0.00017   0.00013
   2     6     8          0.00040  -0.00000
   3     6     8          0.00009   0.00006
   1     7     6         -0.00020  -0.00085
   2     7     6         -0.00012   0.00029
   3     7     6         -0.00020  -0.00008
   1     8     6          0.00015   0.00030
   2     8     6         -0.00000  -0.00005
   3     8     6          0.00012   0.00022
   1     9    17         -0.00001  -0.00002
   2     9    17          0.00002   0.00001
   3     9    17          0.00000   0.00000
   1    10    17         -0.00001   0.00000
   2    10    17          0.00001   0.00001
   3    10    17          0.00000   0.00000
   1    11     1          0.00858   0.01787
   2    11     1          0.01799   0.03413
   3    11     1         -0.01389  -0.02639
   1    12     1          0.26657   0.40825
   2    12     1          0.32129   0.49036
   3    12     1          0.31157   0.47200
   1    13     1          0.05869  -0.11416
   2    13     1          0.05689  -0.11275
   3    13     1         -0.25062   0.45839
   1    14     1          0.47288  -0.20548
   2    14     1          0.65254  -0.28422
   3    14     1          0.00127  -0.00213
   1    15     1         -0.00003  -0.00287
   2    15     1         -0.00130   0.00245
   3    15     1          0.00045  -0.00135
   1    16     1         -0.00653   0.00345
   2    16     1          0.01764  -0.01168
   3    16     1          0.02938  -0.01915
 Harmonic frequencies (cm**-1), IR intensities (KM/Mole), Raman scattering
 activities (A**4/AMU), depolarization ratios for plane and unpolarized
 incident light, reduced masses (AMU), force constants (mDyne/A),
 and normal coordinates:
                      1                      2                      3
                      A                      A                      A
 Frequencies --   -120.4936                70.8852               112.9167
 Red. masses --      4.9176                 8.1126                 5.1562
 Frc consts  --      0.0421                 0.0240                 0.0387
 IR Inten    --      6.6553                 3.1735                 2.8847
  Atom  AN      X      Y      Z        X      Y      Z        X      Y      Z
     1   6     0.01   0.09   0.06    -0.04   0.06  -0.01    -0.01  -0.03  -0.18
     2   6    -0.17   0.08   0.05     0.14  -0.11   0.06     0.09   0.14  -0.17
     3   6    -0.00  -0.06  -0.03     0.23  -0.19   0.07     0.20   0.13   0.02
     4   6     0.32  -0.22  -0.11     0.11  -0.08   0.04     0.18  -0.06   0.13
     5   6     0.07   0.02  -0.03    -0.10   0.09   0.08    -0.05  -0.13   0.02
     6   8    -0.17   0.11   0.17     0.01   0.06  -0.30    -0.04  -0.00  -0.02
     7   6    -0.02   0.10   0.06    -0.02   0.08  -0.20    -0.01   0.00  -0.10
     8   6     0.00  -0.00  -0.09    -0.05   0.04  -0.04    -0.03  -0.01  -0.08
     9  17     0.04  -0.01  -0.04     0.03   0.01  -0.12    -0.07   0.01   0.18
    10  17    -0.04  -0.03  -0.01    -0.14   0.01   0.24    -0.05  -0.02  -0.04
    11   1    -0.00   0.12   0.10    -0.13   0.13   0.04    -0.07  -0.09  -0.32
    12   1    -0.29   0.14   0.09     0.19  -0.15   0.06     0.11   0.25  -0.31
    13   1    -0.04  -0.13  -0.06     0.38  -0.32   0.07     0.31   0.23   0.07
    14   1     0.52  -0.37  -0.17     0.15  -0.11   0.02     0.27  -0.12   0.29
    15   1    -0.04  -0.05   0.15    -0.16   0.09   0.28    -0.11  -0.18   0.08
    16   1     0.11   0.18  -0.14    -0.20   0.21  -0.02    -0.12  -0.18   0.04
                      4                      5                      6
                      A                      A                      A
 Frequencies --    167.6777               246.1208               286.1583
 Red. masses --      9.3967                11.3208                 6.5962
 Frc consts  --      0.1557                 0.4040                 0.3182
 IR Inten    --      0.7947                 3.7167                 5.1075
  Atom  AN      X      Y      Z        X      Y      Z        X      Y      Z
     1   6    -0.16  -0.04  -0.03    -0.17   0.02  -0.02    -0.03  -0.04  -0.11
     2   6    -0.18   0.02  -0.04    -0.22   0.10  -0.03     0.18  -0.19  -0.07
     3   6    -0.12  -0.03   0.03    -0.14   0.07   0.05     0.14  -0.16  -0.06
     4   6    -0.12  -0.10   0.09    -0.07  -0.06   0.08    -0.10   0.04  -0.08
     5   6    -0.08  -0.24   0.02    -0.23  -0.01   0.07    -0.10   0.07  -0.07
     6   8     0.25   0.06  -0.02    -0.22   0.03  -0.19    -0.13  -0.05   0.31
     7   6     0.02   0.15   0.01    -0.08  -0.01  -0.15    -0.08  -0.05   0.02
     8   6     0.03   0.18   0.06    -0.02  -0.11  -0.19    -0.06   0.05  -0.13
     9  17     0.31   0.06   0.03     0.18  -0.19   0.06     0.13  -0.01   0.06
    10  17    -0.18  -0.05  -0.07     0.27   0.17   0.08    -0.06   0.14  -0.02
    11   1    -0.28  -0.00  -0.07    -0.24   0.04  -0.04     0.03  -0.06  -0.09
    12   1    -0.26   0.13  -0.09    -0.28   0.19  -0.07     0.36  -0.35  -0.07
    13   1    -0.11   0.04   0.05    -0.14   0.15   0.07     0.31  -0.31  -0.06
    14   1    -0.09  -0.13   0.16     0.02  -0.12   0.14    -0.22   0.13  -0.10
    15   1    -0.14  -0.35  -0.15    -0.26  -0.00   0.21    -0.06   0.14  -0.01
    16   1     0.03  -0.36   0.13    -0.32   0.04   0.01    -0.21   0.08  -0.10
                      7                      8                      9
                      A                      A                      A
 Frequencies --    314.1142               378.9665               443.7204
 Red. masses --     11.3751                 6.6579                 2.4896
 Frc consts  --      0.6613                 0.5634                 0.2888
 IR Inten    --     11.0231                 6.5373                11.4232
  Atom  AN      X      Y      Z        X      Y      Z        X      Y      Z
     1   6    -0.00   0.03  -0.08     0.17  -0.09   0.12    -0.05   0.07   0.00
     2   6     0.04   0.06  -0.08     0.07  -0.02   0.13     0.07  -0.06   0.03
     3   6     0.14  -0.04  -0.05    -0.11   0.14   0.05     0.04  -0.03   0.02
     4   6     0.11  -0.05  -0.02     0.11   0.01   0.02    -0.06   0.04   0.02
     5   6    -0.01   0.00  -0.04     0.25  -0.08   0.01     0.10  -0.16  -0.06
     6   8    -0.05   0.04  -0.09    -0.01  -0.12  -0.11    -0.13   0.15  -0.03
     7   6    -0.11   0.02   0.13    -0.05  -0.08  -0.03    -0.02   0.09   0.01
     8   6    -0.23   0.03   0.77    -0.10   0.00  -0.14     0.01  -0.00  -0.01
     9  17     0.03  -0.16  -0.06     0.03  -0.10   0.01    -0.02  -0.02  -0.00
    10  17     0.01   0.13  -0.11    -0.16   0.20  -0.02     0.03  -0.02   0.01
    11   1     0.04  -0.03  -0.14     0.22  -0.10   0.15    -0.11   0.11   0.02
    12   1    -0.02   0.14  -0.12     0.07  -0.05   0.15     0.18  -0.17   0.05
    13   1     0.26  -0.09  -0.03    -0.36   0.28   0.02     0.09  -0.09   0.02
    14   1     0.17  -0.09   0.01     0.11   0.01   0.00    -0.14   0.10   0.05
    15   1    -0.04  -0.01   0.04     0.26  -0.14  -0.18     0.05  -0.35  -0.50
    16   1    -0.04   0.04  -0.07     0.42  -0.16   0.11     0.41  -0.41   0.19
                     10                     11                     12
                      A                      A                      A
 Frequencies --    448.6641               522.1988               622.4634
 Red. masses --      8.7310                 3.3463                 3.8930
 Frc consts  --      1.0355                 0.5376                 0.8887
 IR Inten    --      4.9173                 6.4135                12.7898
  Atom  AN      X      Y      Z        X      Y      Z        X      Y      Z
     1   6     0.10  -0.20  -0.01     0.02   0.01   0.06    -0.18   0.21   0.04
     2   6     0.11  -0.16   0.01    -0.14   0.18  -0.01     0.04   0.02   0.08
     3   6    -0.16   0.14   0.01     0.18  -0.14   0.03    -0.05   0.07   0.01
     4   6     0.06  -0.08   0.02    -0.06   0.08  -0.00     0.09   0.04  -0.02
     5   6    -0.01  -0.06   0.03     0.08   0.00  -0.02    -0.02   0.03  -0.06
     6   8    -0.37  -0.03  -0.12    -0.09  -0.13  -0.07     0.06  -0.18   0.08
     7   6    -0.04  -0.14  -0.04    -0.04  -0.13   0.06    -0.06  -0.11  -0.21
     8   6    -0.04  -0.01   0.17    -0.04  -0.03  -0.03    -0.12  -0.02   0.06
     9  17     0.12   0.27  -0.02     0.04   0.07  -0.00     0.03   0.04   0.00
    10  17     0.04  -0.08  -0.00    -0.01  -0.00   0.00     0.03  -0.03   0.00
    11   1     0.14  -0.20   0.01     0.12  -0.09  -0.00    -0.17   0.25   0.10
    12   1     0.25  -0.25  -0.01    -0.43   0.45  -0.04     0.25  -0.19   0.13
    13   1    -0.36   0.34   0.01     0.32  -0.28   0.03     0.03  -0.10  -0.01
    14   1     0.11  -0.12   0.06    -0.19   0.18  -0.02     0.34  -0.14  -0.02
    15   1     0.05   0.06   0.23     0.13  -0.01  -0.25    -0.23  -0.28  -0.36
    16   1    -0.18   0.03  -0.07     0.20  -0.13   0.10     0.35  -0.10   0.10
                     13                     14                     15
                      A                      A                      A
 Frequencies --    637.9002               747.2445               768.3777
 Red. masses --      5.4627                 2.0054                 3.6390
 Frc consts  --      1.3097                 0.6597                 1.2658
 IR Inten    --      8.1924                 6.2826                36.3682
  Atom  AN      X      Y      Z        X      Y      Z        X      Y      Z
     1   6    -0.14   0.09   0.00     0.05  -0.16  -0.02     0.01   0.15  -0.03
     2   6     0.09   0.01  -0.03    -0.08   0.01   0.04    -0.09  -0.02  -0.15
     3   6    -0.03   0.09  -0.06    -0.03   0.02   0.11    -0.10  -0.01   0.01
     4   6     0.06  -0.03  -0.02     0.02   0.12   0.01    -0.08  -0.01   0.07
     5   6    -0.08   0.01  -0.05    -0.06   0.04  -0.12     0.04   0.04   0.10
     6   8     0.05  -0.08  -0.16     0.02   0.02   0.00    -0.08   0.01  -0.01
     7   6    -0.12  -0.02   0.51    -0.02   0.05  -0.02     0.24  -0.16   0.00
     8   6     0.00  -0.01  -0.13    -0.00   0.01   0.00     0.18  -0.05   0.05
     9  17     0.02   0.02  -0.00    -0.00  -0.00   0.00    -0.01  -0.01  -0.00
    10  17     0.01  -0.01   0.01     0.01  -0.00  -0.00    -0.06   0.05  -0.01
    11   1     0.09  -0.07  -0.08     0.09  -0.14   0.04    -0.00   0.17  -0.02
    12   1     0.47  -0.34   0.01     0.16  -0.15   0.00     0.19  -0.37  -0.02
    13   1     0.22  -0.08  -0.05     0.31  -0.37   0.10     0.47  -0.23   0.09
    14   1     0.31  -0.21   0.05     0.58  -0.29   0.00     0.36  -0.33  -0.05
    15   1    -0.18  -0.09  -0.06     0.11   0.15  -0.31     0.05   0.00  -0.02
    16   1     0.04   0.05  -0.05    -0.10  -0.19   0.04     0.08  -0.03   0.16
                     16                     17                     18
                      A                      A                      A
 Frequencies --    812.3264               828.2380               884.1673
 Red. masses --      5.9977                 2.5613                 1.5115
 Frc consts  --      2.3318                 1.0352                 0.6962
 IR Inten    --      9.9335                 9.5467                12.5350
  Atom  AN      X      Y      Z        X      Y      Z        X      Y      Z
     1   6     0.07   0.09  -0.20    -0.09   0.02  -0.05     0.04   0.03   0.04
     2   6    -0.14  -0.15  -0.22     0.00  -0.16  -0.05     0.12  -0.07  -0.03
     3   6    -0.12  -0.07   0.16     0.00  -0.04   0.17    -0.01   0.01  -0.06
     4   6     0.02  -0.00   0.12     0.13   0.09   0.03    -0.10  -0.02   0.01
     5   6     0.27   0.12   0.14    -0.03   0.06  -0.13    -0.02   0.03   0.04
     6   8     0.06  -0.03   0.01    -0.02  -0.01  -0.02    -0.00   0.01   0.00
     7   6    -0.23   0.10   0.01     0.08  -0.05   0.07    -0.03   0.00   0.01
     8   6    -0.22   0.06  -0.05     0.07  -0.01   0.01    -0.03   0.05  -0.02
     9  17     0.01   0.01   0.00    -0.00  -0.00  -0.00    -0.00  -0.00   0.00
    10  17     0.06  -0.05   0.01    -0.02   0.01  -0.00     0.01  -0.01   0.00
    11   1     0.15   0.09  -0.15    -0.07   0.19   0.22     0.03   0.06   0.08
    12   1     0.05  -0.29  -0.24    -0.34   0.42  -0.35    -0.45   0.50  -0.13
    13   1     0.19   0.06   0.27    -0.42   0.27   0.15     0.05   0.06  -0.03
    14   1    -0.07   0.07  -0.28    -0.02   0.20  -0.05     0.46  -0.43   0.01
    15   1     0.25   0.11   0.15    -0.11  -0.03  -0.13     0.09   0.06  -0.17
    16   1     0.17   0.07   0.16    -0.04  -0.05  -0.06     0.12  -0.05   0.13
                     19                     20                     21
                      A                      A                      A
 Frequencies --    913.2658               948.9304               965.9978
 Red. masses --      8.0883                 1.8830                 1.5275
 Frc consts  --      3.9747                 0.9990                 0.8398
 IR Inten    --    113.8275                14.2795                 7.0532
  Atom  AN      X      Y      Z        X      Y      Z        X      Y      Z
     1   6    -0.17  -0.10   0.09     0.13   0.05  -0.01    -0.10  -0.06   0.04
     2   6    -0.00   0.03  -0.02    -0.05   0.03  -0.02    -0.03   0.04  -0.03
[...]
   yy         0.918760D+02      0.136146D+02      0.151483D+02
   zx         0.312189D+01      0.462617D+00      0.514730D+00
   zy         0.278936D+01      0.413341D+00      0.459904D+00
   zz         0.702726D+02      0.104133D+02      0.115864D+02

 ----------------------------------------------------------------------

 Dipole orientation:
     6          1.27489629          0.24514024          2.54706977
     6         -1.06400834         -1.04126462          3.35910726
     6         -2.80144538          0.77580178          4.14281729
     6         -1.61771025          3.12501147          4.07999192
     6          1.18996839          2.78496243          3.94295878
     8         -0.80144532          3.06931128         -0.36350902
     6          0.24086851          0.94748811         -0.21351484
     6          0.30104955         -0.93133229         -2.03484607
    17          2.03346181         -3.73268535         -1.69205754
    17         -0.68901341         -0.28934569         -5.09562218
     1          3.02627605         -0.83142436          2.55158392
     1         -1.42346930         -3.04051128          3.10356083
     1         -4.79448211          0.45267803          4.48447242
     1         -2.54263018          4.92752109          4.38303160
     1          1.97590786          2.56048717          5.85499464
     1          2.17260919          4.31644791          2.97946829

 Electric dipole moment (dipole orientation):
 (Debye = 10**-18 statcoulomb cm , SI units = C m)
                  (au)            (Debye)         (10**-30 SI)
   Tot        0.198333D+01      0.504113D+01      0.168154D+02
   x          0.000000D+00      0.000000D+00      0.000000D+00
   y          0.000000D+00      0.000000D+00      0.000000D+00
   z          0.198333D+01      0.504113D+01      0.168154D+02

 Dipole polarizability, Alpha (dipole orientation).
 (esu units = cm**3 , SI units = C**2 m**2 J**-1)
 Alpha(0;0):
               (au)            (10**-24 esu)      (10**-40 SI)
   iso        0.110149D+03      0.163224D+02      0.181611D+02
   aniso      0.895029D+02      0.132630D+02      0.147570D+02
   xx         0.756620D+02      0.112120D+02      0.124750D+02
   yx        -0.139007D+02     -0.205987D+01     -0.229191D+01
   yy         0.102964D+03      0.152577D+02      0.169765D+02
   zx        -0.128882D+02     -0.190983D+01     -0.212498D+01
   zy         0.286735D+02      0.424898D+01      0.472763D+01
   zz         0.151821D+03      0.224975D+02      0.250319D+02

 ----------------------------------------------------------------------
 1\1\GINC-SWANNODE-0-11\Freq\RB3LYP\6-31G(d)\C7H6Cl2O1\ROOT\15-Jul-2020
 \0\\# int=ultrafine b3lyp/6-31g(d) freq=(hpmodes,intmodes)\\20-TS2A-fr
 eq-b3lyp-631gd-1\\0,1\C,-1.141052,-0.821869,0.557862\C,-1.416363,-0.99
 8228,-0.881945\C,-2.352448,-0.045416,-1.279167\C,-2.772244,0.649427,-0
 .147853\C,-2.393543,-0.110719,1.086604\O,-0.613672,1.52486,0.391324\C,
 -0.10117,0.381565,0.352954\C,1.193834,0.049346,-0.009019\Cl,1.832655,-
 1.578728,0.101296\Cl,2.391818,1.291505,-0.196594\H,-0.745113,-1.669777
 ,1.112642\H,-0.860359,-1.665095,-1.529933\H,-2.603741,0.204637,-2.3031
 68\H,-3.412151,1.524419,-0.150295\H,-3.169094,-0.853936,1.325318\H,-2.
 218288,0.519035,1.958288\\Version=ES64L-G16RevB.01\State=1-A\HF=-1265.
 8608818\RMSD=8.715e-09\RMSF=3.159e-07\ZeroPoint=0.1121286\Thermal=0.12
 05487\Dipole=-1.7520297,-0.9182236,-0.1444437\DipoleDeriv=0.1050746,-0
 .0382029,-0.0806219,0.1026485,0.0770825,-0.1338228,0.3934229,-0.044387
 8,0.0561704,0.6674666,-0.2324227,0.0828176,-0.2660454,-0.0354552,0.072
 4546,-0.1155154,-0.0529949,-0.0091631,-0.4636728,0.1702476,0.0888807,0
 .3470203,-0.2711801,-0.1580142,0.4484817,-0.1077523,0.0466673,0.069579
 7,-0.0794034,-0.0005517,0.093243,0.3386823,0.0766706,-0.658159,0.13196
 28,0.2542977,0.0664788,0.1220555,0.0291295,-0.0572925,0.009217,0.10681
 88,0.0390057,0.0404908,-0.0049786,-0.3278797,0.0757115,0.1034765,0.198
 0471,-0.8510718,-0.2192325,0.2147378,-0.0889477,-0.3508605,-0.5950413,
 -0.2553994,-0.2786657,-0.3838211,0.3991878,0.2678887,-0.1041354,0.1875
 833,0.1329255,1.2954692,0.334384,0.0299505,-0.0156617,1.1829537,-0.188
 42,-0.3250976,-0.2504214,-0.236943,-0.3542551,0.1203656,0.0029978,0.52
 0729,-0.6186304,0.0641984,-0.0664638,0.0979664,-0.0281782,-0.6886653,-
 0.3076894,0.0609259,-0.5786458,-0.482902,0.0679448,0.0744111,0.0538667
 ,0.004756,-0.0159238,0.0357215,-0.0097909,0.0191515,-0.0003315,0.06656
 34,0.0313765,0.0483587,0.0406721,0.0563609,0.055405,0.0205114,0.032169
 5,0.0778989,-0.0295187,0.0356648,-0.0342117,0.0408845,0.1140706,0.0252
 484,-0.0165518,0.0579338,0.1042976,0.040382,-0.0605004,0.0176849,-0.03
 91242,-0.011379,0.0636399,-0.0104458,0.006249,0.0291073,0.0087541,-0.0
 056784,0.0188474,0.0677535,-0.034554,-0.0715394,0.0231027,-0.0871807,0
 .0032302,0.0306437,0.0768866,0.0085795,0.0331588,0.1168706,-0.0181218,
 -0.0451647,0.0114557,0.0379138,-0.0733111,0.0215631,-0.0266247,-0.0080
 383\Polar=168.2983537,-0.2042097,91.8759963,3.1218911,2.7893626,70.272
 5968\Quadrupole=2.778281,-3.5862975,0.8080165,-0.2622809,0.4527963,-0.
 4867996\PG=C01 [X(C7H6Cl2O1)]\NImag=1\\0.40510439,-0.17332653,0.495735
 49,0.04281464,-0.12324590,0.51860705,-0.06071308,0.02935994,-0.0326956
 1,0.41344549,0.01732123,-0.07511630,-0.01983399,-0.29713165,0.48841031
 ,-0.00014413,0.00562017,-0.22318748,-0.02391312,0.11009985,0.55363281,
 -0.01764959,-0.00418736,-0.02350795,-0.18273920,0.13901128,-0.03655617
 ,0.34795480,0.01877816,0.01415191,0.01782943,0.12766482,-0.19733070,0.
 03557703,-0.23542428,0.39908264,-0.01794262,0.02623646,-0.02271684,-0.
 07292878,0.06063150,-0.14349710,0.08674908,-0.02645602,0.80721433,-0.0
 3219097,0.02250308,-0.01717074,-0.00750644,0.02193793,0.01822109,-0.10
 207397,0.07506273,0.07173352,0.35178979,0.01427488,-0.03574651,0.00988
 081,0.04644708,-0.03738030,-0.00547380,0.04956994,-0.13604674,-0.10466
 814,-0.30881035,0.55403161,-0.01764571,0.00186950,-0.00005240,0.040061
 06,-0.03095925,0.02939308,0.04381000,-0.08198218,-0.28723627,-0.054161
 21,0.04229794,0.54510271,-0.12715485,0.04280063,0.02787361,-0.00126961
 ,-0.00264360,0.00912574,0.00496883,-0.00292169,-0.00151472,-0.07282310
 ,0.03184511,-0.03455962,0.46977375,0.04686620,-0.08643777,-0.01407244,
 0.00758465,-0.01060024,-0.02177657,-0.00110680,0.00890470,-0.00814234,
 0.02730344,-0.10631553,0.05625044,0.07780740,0.51378523,0.01551940,-0.
 01611491,-0.08672604,0.02486053,-0.01180284,-0.03013305,0.00439831,0.0
 0535377,-0.04315661,-0.02665039,0.04884544,-0.16989777,-0.00975955,0.0
 6662060,0.60758932,0.00912394,-0.00412375,-0.00301682,-0.02292125,0.00
 590150,-0.00730671,0.01033138,-0.02911729,-0.01413977,0.02739136,0.014
 42683,0.02355912,-0.01378458,-0.01440409,0.00703863,0.16750491,-0.0181
 9870,-0.06673896,-0.00228110,0.01379606,-0.01092176,0.01264345,-0.0073
 9809,0.01116193,0.00667441,-0.01088740,-0.01945564,-0.01158423,0.00332
 510,-0.00278270,-0.00172560,-0.17848901,0.56779121,-0.00115750,0.00445
 027,0.00425184,-0.00664217,-0.00489982,-0.00107648,0.00146532,-0.01040
 087,-0.00217875,0.00811384,0.00232241,-0.00278824,0.00291950,0.0041605
 9,-0.00301562,-0.02945574,0.02518843,0.05294718,-0.05521857,0.00923568
 ,0.03000067,0.00755648,-0.00781482,-0.03252441,-0.01562225,0.01279639,
 0.00907140,-0.03066090,-0.00702593,-0.02190196,-0.03413638,-0.01774815
 ,0.00467977,-0.13059289,0.15510040,0.01292550,0.60280657,0.01693350,-0
 .02807656,0.02553370,-0.04480740,-0.00663902,-0.04971671,0.02098185,-0
 .03256646,-0.01470601,0.03842944,0.02695666,0.02418646,-0.00945359,-0.
 00435997,0.01051014,0.15356334,-0.44562932,-0.01056936,-0.20770819,0.6
 0685919,-0.00510278,-0.00630726,-0.05148643,-0.01151334,-0.00978325,0.
 00256418,-0.01265146,0.00293849,-0.00168277,-0.00310799,-0.00078079,-0
 .00364943,0.01878569,0.01069050,-0.00215999,0.00568796,-0.01090016,-0.
 06266654,-0.06986328,0.01383141,0.16926610,-0.02950063,-0.01581092,-0.
 00267863,-0.01086522,0.00171042,0.00878908,0.00647540,-0.00671944,-0.0
 0579898,0.01165208,0.00451231,0.01276677,-0.00093555,0.00078144,-0.000
 28387,-0.04380885,0.04326226,0.00890224,-0.31494550,0.05181347,0.06568
 026,0.54708948,-0.02101957,0.00078659,0.00317766,0.00629186,-0.0013433
 6,0.00609115,-0.00483640,0.00676772,0.00244729,-0.00575453,-0.00624011
 ,-0.00564473,-0.00152955,-0.00258951,0.00042711,0.05150369,-0.03699030
 ,-0.01269790,0.05487892,-0.06863234,-0.01070643,-0.05942391,0.33752341
 ,0.01112878,0.00386915,0.00235278,0.00710461,-0.00127638,-0.00492222,-
 0.00559287,0.00619027,0.00461445,-0.00722634,-0.00361514,-0.00723604,-
 0.00006367,0.00059976,-0.00019191,0.02460758,-0.02848859,0.00777398,0.
 03624968,0.01324166,-0.04436215,-0.08817440,-0.00715291,0.06746639,-0.
 00419845,0.00258033,0.00185226,-0.00109503,0.00093413,-0.00074808,-0.0
 0063759,-0.00111464,0.00077072,-0.00024833,0.00114680,-0.00014996,0.00
 004133,0.00013349,-0.00087731,-0.00457834,0.00120532,0.00385285,-0.003
 47946,0.02672221,-0.00719987,-0.05837566,0.04224534,0.00445233,0.07006
 901,-0.00197698,-0.00357912,-0.00154848,-0.00123864,0.00016163,0.00160
 259,0.00050415,-0.00001743,-0.00136871,0.00006355,-0.00136627,0.002145
 51,-0.00005214,0.00139547,-0.00067498,0.00381912,-0.00053798,-0.002068
 08,0.00898353,-0.01841833,0.00412404,0.05481906,-0.13281385,0.00332370
 ,-0.06168756,0.19237372,0.00024492,-0.00188671,-0.00188894,-0.00102916
 ,0.00062068,0.00061928,-0.00058065,-0.00009809,0.00037827,-0.00016967,
 -0.00077897,-0.00036675,0.00030268,0.00037934,0.00024585,-0.00152216,0
 .00441287,0.00705393,0.01157498,-0.00850998,-0.00702581,-0.00552001,0.
 01302200,-0.01032192,-0.00319090,-0.00999889,0.00983519,-0.00094581,0.
 00470180,0.00408457,0.00334825,0.00009307,0.00111495,-0.00183149,0.002
 19434,0.00121263,-0.00171687,-0.00119143,-0.00234405,-0.00076483,-0.00
 207673,-0.00008805,0.00323160,0.00028924,-0.00140347,-0.02896674,-0.03
 588393,0.00282686,-0.10860290,-0.05985453,0.01796747,0.00540929,-0.004
 18964,-0.00127784,0.13244658,0.00164074,0.00206497,0.00266778,0.002811
 63,-0.00020980,-0.00008614,-0.00140979,0.00199056,0.00138534,-0.001544
 15,-0.00062109,-0.00244353,0.00020154,-0.00066180,-0.00024484,0.003710
 88,0.00589796,-0.00052044,-0.01042506,-0.01207378,0.00013792,-0.076074
 06,-0.09619950,0.01506704,-0.01390987,-0.03888474,0.00304977,0.0957751
 6,0.13874666,0.00194067,0.00189724,0.00568355,-0.00066419,0.00095849,-
 0.00191510,0.00189612,-0.00203979,-0.00115284,0.00207726,0.00130779,0.
 00188423,-0.00062138,-0.00148132,0.00077579,-0.00294404,0.00545574,-0.
 00312067,0.01273328,-0.00174302,0.00156734,0.00812038,0.00978247,-0.01
 724407,0.00106410,0.00512083,0.00146260,-0.02231308,-0.01925328,0.0122
 6636,-0.08226922,0.08629277,-0.04764584,-0.00469878,0.00431610,-0.0063
 3868,0.00342160,-0.00074619,-0.00231063,-0.00394836,0.00281057,0.00349
 874,-0.00564522,0.01356508,-0.01397207,-0.00098934,-0.00279001,0.00034
 926,0.00553119,-0.01275877,0.01065474,0.00113288,-0.00107735,0.0001044
 1,-0.00281060,0.00064536,0.00076677,-0.00069141,-0.00041314,-0.0008120
 6,0.09043841,0.08673739,-0.22044008,0.11771776,-0.00517211,0.00936281,
 -0.00564804,0.00020072,-0.00024655,-0.00249841,0.00100970,-0.00125197,
 -0.00045261,-0.00080210,-0.00540341,0.00471042,-0.00197135,-0.00371391
 ,0.00108391,0.00742798,-0.01296810,0.00793929,0.00123908,-0.00099126,-
 0.00038186,0.00119278,0.00146908,-0.00076889,-0.00038423,-0.00021586,-
 0.00024483,-0.08968795,0.23347804,-0.04977712,0.11175796,-0.12570329,-
 0.01146805,0.02496279,-0.00968403,-0.00094231,0.00020955,-0.00521245,0
 .00299724,-0.00230861,-0.00258627,0.00231552,-0.01081664,0.00966387,-0
 .00030581,-0.00146278,-0.00004308,0.00223644,-0.00062143,0.00061725,-0
 .00066670,0.00168578,0.00041386,0.00055325,-0.00118717,0.00013562,0.00
 019635,-0.00005642,-0.00013243,0.05691505,-0.12221904,0.13001063,0.007
 19617,-0.00460050,-0.00686034,-0.12675275,0.10635407,0.09072077,-0.000
 62297,0.00882037,0.01396760,-0.00018123,0.00601889,-0.00132249,-0.0007
 9147,0.00181425,-0.00156668,0.00106751,-0.00062209,0.00004032,-0.00072
 460,0.00099387,0.00088601,0.00027751,-0.00109289,-0.00118337,-0.000089
 69,0.00023158,-0.00007253,-0.00016621,-0.00006521,-0.00006084,-0.00049
 453,0.00001759,0.00023647,0.12254392,0.00052080,0.00280460,-0.00079179
 ,0.10584183,-0.16005755,-0.10874810,0.00660872,-0.00254811,-0.01225221
 ,0.00505269,0.00001941,0.00010111,-0.00020855,0.00225886,0.00120426,0.
 00105683,-0.00022938,0.00008210,-0.00042471,0.00076292,0.00058964,-0.0
 0022377,-0.00047305,-0.00092475,0.00073097,-0.00012695,0.00033614,-0.0
 0013476,-0.00020593,0.00001796,-0.00091391,-0.00023131,-0.00075251,-0.
 11583537,0.15925228,0.01612657,-0.01465719,-0.00711089,0.08660991,-0.1
 1597903,-0.16554018,-0.00578074,0.00781642,0.01165225,-0.00222248,0.00
 228851,-0.00182062,-0.00230539,-0.00224202,-0.00436409,-0.00066555,0.0
 0035861,0.00080813,0.00175290,0.00049186,-0.00094161,-0.00011204,-0.00
 083004,0.00086334,-0.00018743,0.00071219,-0.00003915,-0.00005191,0.000
 21317,-0.00007675,0.00010112,0.00070193,0.00107784,-0.09532373,0.12186
 927,0.16464754,0.00130925,0.00718192,-0.00135576,-0.00265449,0.0017110
 2,-0.02018831,-0.05799963,0.02434005,-0.06402437,0.00466694,-0.0041177
 2,0.01267955,0.00330745,0.00520014,0.00208552,-0.00000361,-0.00025917,
 -0.00015515,0.00094832,0.00052582,0.00115691,-0.00002751,0.00039101,0.
 00015136,-0.00001200,-0.00006695,0.00008852,-0.00000175,-0.00004703,-0
 .00009397,-0.00025687,-0.00061257,-0.00161365,-0.00127037,-0.00187037,
 0.00077599,0.05376330,0.00535330,0.00002557,-0.00001697,0.00103487,0.0
 0121183,0.02056827,0.02797862,-0.06879345,0.06401202,-0.00497158,0.009
 44196,-0.01443271,0.00426556,0.00080770,-0.00244867,-0.00013813,0.0003
 0280,0.00011083,0.00044683,-0.00050122,0.00073984,-0.00020700,0.000390
 00,-0.00008051,-0.00002597,-0.00006769,0.00007017,0.00018320,0.0001160
 7,-0.00007580,0.00017976,0.00033392,0.00042528,-0.00162784,-0.00083518
 ,-0.00043979,-0.03031080,0.05787964,0.00066815,0.00015655,0.00014905,0
 .00100136,-0.00083107,-0.00036005,-0.06634021,0.06196071,-0.31998230,-
 0.00632715,0.00897140,-0.01446763,-0.00007847,-0.00288476,-0.00177017,
 0.00017677,-0.00029373,0.00032093,-0.00000204,0.00031874,0.00008698,0.
 00020252,0.00000936,0.00001760,-0.00006469,0.00006379,-0.00000673,-0.0
 0013098,-0.00011232,0.00000620,-0.00012114,-0.00011940,0.00003735,-0.0
 0028294,0.00024348,0.00019858,0.07094593,-0.06815195,0.33585482,-0.001
 21617,0.00195085,-0.00000652,0.00388802,0.00352172,0.00116467,0.002566
 27,0.00677789,-0.00159043,-0.14916004,0.15189630,0.00082268,0.00366856
 ,0.00054428,0.00024568,-0.00012912,0.00118261,0.00011520,-0.00008457,-
 0.00030126,-0.00036661,0.00036324,0.00020025,-0.00025573,-0.00002536,0
 .00022028,0.00027894,-0.00012316,-0.00016558,-0.00002163,0.00034901,0.
 00053114,0.00034852,-0.00062539,-0.00038173,-0.00030770,-0.00190571,-0
 .00178466,0.00038875,0.14337111,-0.00135352,-0.00068256,0.00171875,0.0
 0413263,0.00044701,-0.00124491,0.00684295,-0.00180110,0.00543316,0.150
 42268,-0.24632709,-0.00110130,0.00732576,-0.00453831,-0.00486625,-0.00
 030435,0.00195563,0.00011546,-0.00106204,-0.00080614,-0.00059075,0.000
 42445,0.00008635,-0.00025762,-0.00001069,0.00041963,0.00014081,-0.0000
 5046,-0.00009354,0.00003006,0.00084891,0.00044663,-0.00013844,-0.00006
 209,-0.00043876,0.00018012,-0.00149768,-0.00085468,-0.00012398,-0.1650
 3302,0.25181452,-0.00090604,0.00350097,-0.00470861,0.00153603,-0.00294
 337,-0.00506825,0.01545970,-0.01876206,0.00808884,-0.00180975,0.001901
 93,-0.05976173,-0.01436039,0.01576112,0.00695690,0.00054761,-0.0001689
 0,-0.00003308,0.00044175,0.00063753,-0.00012207,-0.00006721,0.00000727
 ,0.00010331,-0.00007847,-0.00010009,0.00010059,-0.00005152,-0.00001911
 ,-0.00005442,-0.00121640,0.00039174,0.00098341,0.00097620,-0.00075937,
 0.00088837,-0.00056261,0.00075156,0.00066374,-0.00060055,0.00002443,0.
 05136808,-0.01766403,-0.01627975,0.00700685,-0.00109366,0.00123919,-0.
 00240677,0.00103211,-0.00086770,-0.00132251,0.00711217,0.00612932,-0.0
 0114645,-0.16735236,-0.12137337,0.03621104,-0.00019920,0.00174083,0.00
 038430,-0.00340615,-0.00095020,0.00281470,0.00064177,-0.00101949,0.000
 60655,-0.00012479,0.00030752,0.00010179,-0.00077909,-0.00019598,-0.000
 41037,0.00073715,0.00021090,-0.00066162,0.00038180,0.00048254,0.000028
 11,-0.00040883,-0.00039017,0.00009714,-0.00095085,-0.00041654,0.000319
 31,0.18541500,0.01113757,0.00870904,-0.00581462,0.00018226,0.00125479,
 0.00012684,0.00254462,-0.00123968,-0.00039568,-0.01172429,-0.01274481,
 0.00663253,-0.12538902,-0.16005222,0.03395884,-0.00337607,0.00031223,0
 .00175163,0.00406658,-0.00303526,-0.00227099,-0.00038878,0.00087819,0.
 00007267,-0.00018087,0.00005908,-0.00009663,0.00044807,0.00023930,0.00
 022605,-0.00053762,0.00048626,0.00057386,-0.00034170,-0.00039185,0.000
 15200,0.00029026,0.00030573,0.00006803,0.00103660,0.00017470,0.0007076
 7,0.13445668,0.17660771,0.00447531,0.00402482,-0.00315802,0.00010439,0
 .00165911,0.00002146,-0.00016447,0.00033107,-0.00135897,0.01773285,0.0
 1512101,-0.00791786,0.03947967,0.03632576,-0.05872739,-0.00017867,0.00
 029433,0.00045028,0.00136238,0.00043942,-0.00010991,-0.00058082,0.0001
 3050,0.00021966,0.00004387,-0.00025813,-0.00007079,0.00021052,0.000132
 51,0.00016164,-0.00026159,-0.00011726,0.00037987,-0.00022971,-0.000335
 34,0.00006276,-0.00100857,-0.00093086,-0.00003345,-0.00070777,-0.00000
 433,-0.00016850,-0.04245894,-0.04028783,0.06252522,0.00598762,0.011721
 80,0.02130562,-0.00592871,0.00353841,0.00099007,0.00242631,0.00047648,
 -0.00193212,-0.00210211,-0.00793260,-0.00396645,-0.05710197,-0.0248912
 5,-0.04184097,-0.00164352,-0.00125736,-0.00025430,0.00099548,0.0018998
 4,0.00131221,-0.00057055,0.00009715,0.00012362,0.00015567,-0.00038225,
 0.00000433,0.00015455,0.00010992,0.00010973,0.00019410,0.00006302,-0.0
 0036356,0.00025231,-0.00030120,0.00156237,0.00054553,0.00001402,-0.000
 13301,0.00001418,-0.00020698,0.00037236,-0.00334103,-0.01222428,-0.017
 81845,0.05996215,-0.00368845,-0.00746033,-0.01092059,0.00320216,-0.001
 24933,0.00036490,0.00011987,-0.00146925,0.00366735,0.00190705,0.013046
 41,0.01511705,-0.02457088,-0.14341053,-0.13375251,-0.00205817,-0.00042
 179,0.00189085,-0.00072741,-0.00087227,0.00034850,0.00028541,-0.000158
 99,-0.00018649,0.00003822,-0.00006625,0.00010638,0.00008083,0.00011050
 ,0.00004140,0.00026641,-0.00011429,-0.00005217,-0.00000292,0.00044000,
 -0.00063601,-0.00085794,0.00023699,0.00072515,-0.00019566,0.00019772,-
 0.00093130,-0.00307379,-0.01156322,-0.01652478,0.02927526,0.15275464,-
 0.00024254,-0.00117113,-0.00430533,-0.00042346,-0.00062341,-0.00084686
 ,-0.00166169,0.00153226,-0.00377324,-0.00203007,-0.01531179,-0.0185990
 1,-0.03753922,-0.12937201,-0.22508909,-0.00208240,0.00187726,0.0013161
 8,0.00126293,-0.00332441,0.00010486,-0.00057859,0.00025143,0.00045293,
 -0.00009266,0.00011188,-0.00011124,0.00004756,0.00008257,-0.00011143,0
 .00028831,-0.00009471,0.00004186,0.00007525,0.00012012,-0.00030553,0.0
 0111863,-0.00010071,-0.00071490,0.00049250,0.00068478,0.00076341,0.000
 83688,0.00459563,0.00772401,0.04052858,0.14074225,0.24345339\\0.000000
 26,-0.00000015,0.00000016,-0.00000016,0.00000030,-0.00000046,0.0000001
 0,0.00000026,-0.00000112,-0.00000043,0.00000081,0.00000037,0.00000011,
 0.00000012,0.00000004,-0.00000002,0.00000009,0.00000030,0.,-0.00000037
 ,0.00000010,0.00000014,0.00000005,0.00000011,-0.00000015,-0.00000015,0
 .00000014,-0.00000008,-0.00000015,0.00000061,-0.00000009,-0.00000028,-
 0.00000013,0.00000007,0.00000017,-0.00000007,0.00000043,0.00000019,0.0
 0000046,0.00000039,-0.00000029,-0.00000005,-0.00000030,-0.00000024,-0.
 00000024,-0.00000027,-0.00000035,-0.00000023\\\@


 If your ship doesn't come in, swim out to it!
                          -- Jonathan Winters
 Job cpu time:       0 days  0 hours 49 minutes 56.3 seconds.
 Elapsed time:       0 days  0 hours  4 minutes 10.1 seconds.
 File lengths (MBytes):  RWF=     67 Int=      0 D2E=      0 Chk=      3 Scr=      1
 Normal termination of Gaussian 16 at Wed Jul 15 21:35:19 2020.
