 Entering Gaussian System, Link 0=/usr/local/shared/gaussian/x86_64_sse4/16-B01/g16/g16
 Initial command:
 /usr/local/shared/gaussian/x86_64_sse4/16-B01/g16/l1.exe "/scratch/sl884/19-I1-freq-b3lyp-631gd-1/Gau-22063.inp" -scrdir="/scratch/sl884/19-I1-freq-b3lyp-631gd-1/"
 Entering Link 1 = /usr/local/shared/gaussian/x86_64_sse4/16-B01/g16/l1.exe PID=     22067.
  
 Copyright (c) 1988-2017, Gaussian, Inc.  All Rights Reserved.
  
 This is part of the Gaussian(R) 16 program.  It is based on
 the Gaussian(R) 09 system (copyright 2009, Gaussian, Inc.),
 the Gaussian(R) 03 system (copyright 2003, Gaussian, Inc.),
 the Gaussian(R) 98 system (copyright 1998, Gaussian, Inc.),
 the Gaussian(R) 94 system (copyright 1995, Gaussian, Inc.),
 the Gaussian 92(TM) system (copyright 1992, Gaussian, Inc.),
 the Gaussian 90(TM) system (copyright 1990, Gaussian, Inc.),
 the Gaussian 88(TM) system (copyright 1988, Gaussian, Inc.),
 the Gaussian 86(TM) system (copyright 1986, Carnegie Mellon
 University), and the Gaussian 82(TM) system (copyright 1983,
 Carnegie Mellon University). Gaussian is a federally registered
 trademark of Gaussian, Inc.
  
 This software contains proprietary and confidential information,
 including trade secrets, belonging to Gaussian, Inc.
  
 This software is provided under written license and may be
 used, copied, transmitted, or stored only in accord with that
 written license.
  
 The following legend is applicable only to US Government
 contracts under FAR:
  
                    RESTRICTED RIGHTS LEGEND
  
 Use, reproduction and disclosure by the US Government is
 subject to restrictions as set forth in subparagraphs (a)
 and (c) of the Commercial Computer Software - Restricted
 Rights clause in FAR 52.227-19.
  
 Gaussian, Inc.
 340 Quinnipiac St., Bldg. 40, Wallingford CT 06492
  
  
 ---------------------------------------------------------------
 Warning -- This program may not be used in any manner that
 competes with the business of Gaussian, Inc. or will provide
 assistance to any competitor of Gaussian, Inc.  The licensee
 of this program is prohibited from giving any competitor of
 Gaussian, Inc. access to this program.  By using this program,
 the user acknowledges that Gaussian, Inc. is engaged in the
 business of creating and licensing software in the field of
 computational chemistry and represents and warrants to the
 licensee that it is not a competitor of Gaussian, Inc. and that
 it will not use this program in any manner prohibited above.
 ---------------------------------------------------------------
  

 Cite this work as:
 Gaussian 16, Revision B.01,
 M. J. Frisch, G. W. Trucks, H. B. Schlegel, G. E. Scuseria, 
 M. A. Robb, J. R. Cheeseman, G. Scalmani, V. Barone, 
 G. A. Petersson, H. Nakatsuji, X. Li, M. Caricato, A. V. Marenich, 
 J. Bloino, B. G. Janesko, R. Gomperts, B. Mennucci, H. P. Hratchian, 
 J. V. Ortiz, A. F. Izmaylov, J. L. Sonnenberg, D. Williams-Young, 
 F. Ding, F. Lipparini, F. Egidi, J. Goings, B. Peng, A. Petrone, 
 T. Henderson, D. Ranasinghe, V. G. Zakrzewski, J. Gao, N. Rega, 
 G. Zheng, W. Liang, M. Hada, M. Ehara, K. Toyota, R. Fukuda, 
 J. Hasegawa, M. Ishida, T. Nakajima, Y. Honda, O. Kitao, H. Nakai, 
 T. Vreven, K. Throssell, J. A. Montgomery, Jr., J. E. Peralta, 
 F. Ogliaro, M. J. Bearpark, J. J. Heyd, E. N. Brothers, K. N. Kudin, 
 V. N. Staroverov, T. A. Keith, R. Kobayashi, J. Normand, 
 K. Raghavachari, A. P. Rendell, J. C. Burant, S. S. Iyengar, 
 J. Tomasi, M. Cossi, J. M. Millam, M. Klene, C. Adamo, R. Cammi, 
 J. W. Ochterski, R. L. Martin, K. Morokuma, O. Farkas, 
 J. B. Foresman, and D. J. Fox, Gaussian, Inc., Wallingford CT, 2016.
 
 ******************************************
 Gaussian 16:  ES64L-G16RevB.01 20-Dec-2017
                15-Jul-2020 
 ******************************************
 %nproc=12
 Will use up to   12 processors via shared memory.
 %mem=12GB
 %chk=19-I1-freq-b3lyp-631gd-1.chk
 ------------------------------------------------------
 # int=ultrafine b3lyp/6-31g(d) freq=(hpmodes,intmodes)
 ------------------------------------------------------
 1/10=4,18=20,30=1,38=1/1,3;
 2/9=110,12=2,17=6,18=5,40=1/2;
 3/5=1,6=6,7=1,11=2,25=1,30=1,71=2,74=-5,75=-5,140=1/1,2,3;
 4//1;
 5/5=2,38=5,98=1/2;
 8/6=4,10=90,11=11/1;
 11/6=1,8=1,9=11,15=111,16=1/1,2,10;
 10/6=1/2;
 6/7=2,8=2,9=2,10=2,28=1/1;
 7/8=31,10=1,25=1/1,2,3,16;
 1/10=4,18=20,30=1/3;
 99//99;
 ------------------------
 19-I1-freq-b3lyp-631gd-1
 ------------------------
 Symbolic Z-matrix:
 Charge =  0 Multiplicity = 1
 C                    -1.15461   0.73069  -0.62269 
 C                    -1.2653    0.9433    0.83054 
 C                    -2.27457   0.10012   1.34134 
 C                    -2.91484  -0.51824   0.29435 
 C                    -2.47472   0.0599   -1.01758 
 O                    -0.50282  -1.61411  -0.53237 
 C                    -0.08943  -0.45422  -0.44599 
 C                     1.17418  -0.04428   0.03005 
 Cl                    1.77324   1.59481  -0.14277 
 Cl                    2.41204  -1.23748   0.26065 
 H                    -0.79374   1.55412  -1.23651 
 H                    -0.6303    1.60341   1.40635 
 H                    -2.46213  -0.0789    2.39374 
 H                    -3.68483  -1.27631   0.38995 
 H                    -3.19561   0.82081  -1.35449 
 H                    -2.36488  -0.68826  -1.8041 
 

 GradGradGradGradGradGradGradGradGradGradGradGradGradGradGradGradGradGrad
 Berny optimization.
 Initialization pass.
                           ----------------------------
                           !    Initial Parameters    !
                           ! (Angstroms and Degrees)  !
 --------------------------                            --------------------------
 ! Name  Definition              Value          Derivative Info.                !
 --------------------------------------------------------------------------------
 ! R1    R(1,2)                  1.4729         calculate D2E/DX2 analytically  !
 ! R2    R(1,5)                  1.5325         calculate D2E/DX2 analytically  !
 ! R3    R(1,7)                  1.6031         calculate D2E/DX2 analytically  !
 ! R4    R(1,11)                 1.0886         calculate D2E/DX2 analytically  !
 ! R5    R(2,3)                  1.4108         calculate D2E/DX2 analytically  !
 ! R6    R(2,12)                 1.0819         calculate D2E/DX2 analytically  !
 ! R7    R(3,4)                  1.3742         calculate D2E/DX2 analytically  !
 ! R8    R(3,13)                 1.0839         calculate D2E/DX2 analytically  !
 ! R9    R(4,5)                  1.4997         calculate D2E/DX2 analytically  !
 ! R10   R(4,14)                 1.0847         calculate D2E/DX2 analytically  !
 ! R11   R(5,15)                 1.101          calculate D2E/DX2 analytically  !
 ! R12   R(5,16)                 1.0911         calculate D2E/DX2 analytically  !
 ! R13   R(6,7)                  1.2344         calculate D2E/DX2 analytically  !
 ! R14   R(7,8)                  1.4112         calculate D2E/DX2 analytically  !
 ! R15   R(8,9)                  1.7537         calculate D2E/DX2 analytically  !
 ! R16   R(8,10)                 1.7347         calculate D2E/DX2 analytically  !
 ! A1    A(2,1,5)              104.6364         calculate D2E/DX2 analytically  !
 ! A2    A(2,1,7)               92.7441         calculate D2E/DX2 analytically  !
 ! A3    A(2,1,11)             118.1685         calculate D2E/DX2 analytically  !
 ! A4    A(5,1,7)              106.0958         calculate D2E/DX2 analytically  !
 ! A5    A(5,1,11)             118.1221         calculate D2E/DX2 analytically  !
 ! A6    A(7,1,11)             113.6401         calculate D2E/DX2 analytically  !
 ! A7    A(1,2,3)              108.9488         calculate D2E/DX2 analytically  !
 ! A8    A(1,2,12)             124.6863         calculate D2E/DX2 analytically  !
 ! A9    A(3,2,12)             126.2858         calculate D2E/DX2 analytically  !
 ! A10   A(2,3,4)              109.0486         calculate D2E/DX2 analytically  !
 ! A11   A(2,3,13)             125.033          calculate D2E/DX2 analytically  !
 ! A12   A(4,3,13)             125.7895         calculate D2E/DX2 analytically  !
 ! A13   A(3,4,5)              110.8725         calculate D2E/DX2 analytically  !
 ! A14   A(3,4,14)             125.3114         calculate D2E/DX2 analytically  !
 ! A15   A(5,4,14)             123.6984         calculate D2E/DX2 analytically  !
 ! A16   A(1,5,4)              101.3102         calculate D2E/DX2 analytically  !
 ! A17   A(1,5,15)             109.8987         calculate D2E/DX2 analytically  !
 ! A18   A(1,5,16)             113.5263         calculate D2E/DX2 analytically  !
 ! A19   A(4,5,15)             109.9966         calculate D2E/DX2 analytically  !
 ! A20   A(4,5,16)             113.3171         calculate D2E/DX2 analytically  !
 ! A21   A(15,5,16)            108.6169         calculate D2E/DX2 analytically  !
 ! A22   A(1,7,6)              117.6649         calculate D2E/DX2 analytically  !
 ! A23   A(1,7,8)              114.6733         calculate D2E/DX2 analytically  !
 ! A24   A(6,7,8)              126.617          calculate D2E/DX2 analytically  !
 ! A25   A(7,8,9)              122.9678         calculate D2E/DX2 analytically  !
 ! A26   A(7,8,10)             118.9464         calculate D2E/DX2 analytically  !
 ! A27   A(9,8,10)             114.3453         calculate D2E/DX2 analytically  !
 ! D1    D(5,1,2,3)             18.7473         calculate D2E/DX2 analytically  !
 ! D2    D(5,1,2,12)          -164.3182         calculate D2E/DX2 analytically  !
 ! D3    D(7,1,2,3)            -88.6736         calculate D2E/DX2 analytically  !
 ! D4    D(7,1,2,12)            88.2609         calculate D2E/DX2 analytically  !
 ! D5    D(11,1,2,3)           152.5723         calculate D2E/DX2 analytically  !
 ! D6    D(11,1,2,12)          -30.4932         calculate D2E/DX2 analytically  !
 ! D7    D(2,1,5,4)            -22.0931         calculate D2E/DX2 analytically  !
 ! D8    D(2,1,5,15)            94.2199         calculate D2E/DX2 analytically  !
 ! D9    D(2,1,5,16)          -143.9181         calculate D2E/DX2 analytically  !
 ! D10   D(7,1,5,4)             75.195          calculate D2E/DX2 analytically  !
 ! D11   D(7,1,5,15)          -168.4919         calculate D2E/DX2 analytically  !
 ! D12   D(7,1,5,16)           -46.63           calculate D2E/DX2 analytically  !
 ! D13   D(11,1,5,4)          -155.944          calculate D2E/DX2 analytically  !
 ! D14   D(11,1,5,15)          -39.6309         calculate D2E/DX2 analytically  !
 ! D15   D(11,1,5,16)           82.231          calculate D2E/DX2 analytically  !
 ! D16   D(2,1,7,6)            100.2416         calculate D2E/DX2 analytically  !
 ! D17   D(2,1,7,8)            -68.852          calculate D2E/DX2 analytically  !
 ! D18   D(5,1,7,6)             -5.8472         calculate D2E/DX2 analytically  !
 ! D19   D(5,1,7,8)           -174.9407         calculate D2E/DX2 analytically  !
 ! D20   D(11,1,7,6)          -137.2868         calculate D2E/DX2 analytically  !
 ! D21   D(11,1,7,8)            53.6196         calculate D2E/DX2 analytically  !
 ! D22   D(1,2,3,4)             -6.8495         calculate D2E/DX2 analytically  !
 ! D23   D(1,2,3,13)           169.2179         calculate D2E/DX2 analytically  !
 ! D24   D(12,2,3,4)           176.2777         calculate D2E/DX2 analytically  !
 ! D25   D(12,2,3,13)           -7.6548         calculate D2E/DX2 analytically  !
 ! D26   D(2,3,4,5)             -8.5759         calculate D2E/DX2 analytically  !
 ! D27   D(2,3,4,14)           175.2596         calculate D2E/DX2 analytically  !
 ! D28   D(13,3,4,5)           175.3937         calculate D2E/DX2 analytically  !
 ! D29   D(13,3,4,14)           -0.7708         calculate D2E/DX2 analytically  !
 ! D30   D(3,4,5,1)             19.3483         calculate D2E/DX2 analytically  !
 ! D31   D(3,4,5,15)           -96.8928         calculate D2E/DX2 analytically  !
 ! D32   D(3,4,5,16)           141.3189         calculate D2E/DX2 analytically  !
 ! D33   D(14,4,5,1)          -164.4136         calculate D2E/DX2 analytically  !
 ! D34   D(14,4,5,15)           79.3453         calculate D2E/DX2 analytically  !
 ! D35   D(14,4,5,16)          -42.443          calculate D2E/DX2 analytically  !
 ! D36   D(1,7,8,9)            -22.9779         calculate D2E/DX2 analytically  !
 ! D37   D(1,7,8,10)          -179.9387         calculate D2E/DX2 analytically  !
 ! D38   D(6,7,8,9)            169.073          calculate D2E/DX2 analytically  !
 ! D39   D(6,7,8,10)            12.1122         calculate D2E/DX2 analytically  !
 --------------------------------------------------------------------------------
 Trust Radius=3.00D-01 FncErr=1.00D-07 GrdErr=1.00D-07 EigMax=2.50D+02 EigMin=1.00D-04
 Number of steps in this run=      2 maximum allowed number of steps=      2.
 GradGradGradGradGradGradGradGradGradGradGradGradGradGradGradGradGradGrad

                          Input orientation:                          
 ---------------------------------------------------------------------
 Center     Atomic      Atomic             Coordinates (Angstroms)
 Number     Number       Type             X           Y           Z
 ---------------------------------------------------------------------
      1          6           0       -1.154609    0.730685   -0.622693
      2          6           0       -1.265304    0.943297    0.830539
      3          6           0       -2.274569    0.100121    1.341344
      4          6           0       -2.914838   -0.518243    0.294345
      5          6           0       -2.474720    0.059895   -1.017583
      6          8           0       -0.502822   -1.614112   -0.532371
      7          6           0       -0.089428   -0.454223   -0.445986
      8          6           0        1.174178   -0.044275    0.030053
      9         17           0        1.773243    1.594807   -0.142771
     10         17           0        2.412039   -1.237484    0.260648
     11          1           0       -0.793741    1.554115   -1.236506
     12          1           0       -0.630298    1.603405    1.406349
     13          1           0       -2.462131   -0.078902    2.393741
     14          1           0       -3.684826   -1.276306    0.389954
     15          1           0       -3.195609    0.820811   -1.354490
     16          1           0       -2.364876   -0.688256   -1.804099
 ---------------------------------------------------------------------
                    Distance matrix (angstroms):
                    1          2          3          4          5
     1  C    0.000000
     2  C    1.472868   0.000000
     3  C    2.347203   1.410845   0.000000
     4  C    2.345034   2.268163   1.374236   0.000000
     5  C    1.532511   2.378790   2.367745   1.499701   0.000000
     6  O    2.435376   2.996539   3.096529   2.775285   2.631751
     7  C    1.603073   2.228287   2.876923   2.921495   2.506124
     8  C    2.539663   2.750845   3.692450   4.124869   3.797743
     9  Cl   3.090202   3.256465   4.563054   5.160829   4.600700
    10  Cl   4.168328   4.313170   4.992132   5.375320   5.215120
    11  H    1.088590   2.206387   3.309420   3.337248   2.259715
    12  H    2.270144   1.081911   2.228837   3.310146   3.414639
    13  H    3.385841   2.218307   1.083867   2.192129   3.414170
    14  H    3.384592   3.312830   2.188268   1.084750   2.287127
    15  H    2.170099   2.918121   2.938576   2.142558   1.100991
    16  H    2.207682   3.288212   3.243995   2.175966   1.091056
                    6          7          8          9         10
     6  O    0.000000
     7  C    1.234382   0.000000
     8  C    2.364960   1.411159   0.000000
     9  Cl   3.953406   2.785679   1.753664   0.000000
    10  Cl   3.044198   2.714805   1.734711   2.931327   0.000000
    11  H    3.258543   2.270330   2.834030   2.790577   4.506830
    12  H    3.758630   2.820907   2.804492   2.859520   4.317302
    13  H    3.841600   3.719494   4.337161   5.212829   5.445175
    14  H    3.330157   3.781733   5.025669   6.190121   6.098360
    15  H    3.722342   3.478427   4.664801   5.172700   6.187969
    16  H    2.437570   2.660245   4.037788   5.009632   5.232948
                   11         12         13         14         15
    11  H    0.000000
    12  H    2.648363   0.000000
    13  H    4.316128   2.675951   0.000000
    14  H    4.360622   4.319252   2.635132   0.000000
    15  H    2.514085   3.849092   3.923864   2.771339   0.000000
    16  H    2.796222   4.308996   4.242951   2.627154   1.780323
                   16
    16  H    0.000000
 Stoichiometry    C7H6Cl2O
 Framework group  C1[X(C7H6Cl2O)]
 Deg. of freedom    42
 Full point group                 C1      NOp   1
 Largest Abelian subgroup         C1      NOp   1
 Largest concise Abelian subgroup C1      NOp   1
                         Standard orientation:                         
 ---------------------------------------------------------------------
 Center     Atomic      Atomic             Coordinates (Angstroms)
 Number     Number       Type             X           Y           Z
 ---------------------------------------------------------------------
      1          6           0       -1.154609    0.730685   -0.622693
      2          6           0       -1.265304    0.943297    0.830539
      3          6           0       -2.274569    0.100121    1.341344
      4          6           0       -2.914838   -0.518243    0.294345
      5          6           0       -2.474720    0.059895   -1.017583
      6          8           0       -0.502822   -1.614112   -0.532371
      7          6           0       -0.089428   -0.454223   -0.445986
      8          6           0        1.174178   -0.044275    0.030053
      9         17           0        1.773243    1.594807   -0.142771
     10         17           0        2.412039   -1.237484    0.260648
     11          1           0       -0.793741    1.554115   -1.236506
     12          1           0       -0.630298    1.603405    1.406349
     13          1           0       -2.462131   -0.078902    2.393741
     14          1           0       -3.684826   -1.276306    0.389954
     15          1           0       -3.195609    0.820811   -1.354490
     16          1           0       -2.364876   -0.688256   -1.804099
 ---------------------------------------------------------------------
 Rotational constants (GHZ):           1.7576139           0.7072920           0.5897929
 Standard basis: 6-31G(d) (6D, 7F)
 There are   170 symmetry adapted cartesian basis functions of A   symmetry.
 There are   170 symmetry adapted basis functions of A   symmetry.
   170 basis functions,   352 primitive gaussians,   170 cartesian basis functions
    45 alpha electrons       45 beta electrons
       nuclear repulsion energy       678.6772642406 Hartrees.
 NAtoms=   16 NActive=   16 NUniq=   16 SFac= 1.00D+00 NAtFMM=   60 NAOKFM=F Big=F
 Integral buffers will be    131072 words long.
 Raffenetti 2 integral format.
 Two-electron integral symmetry is turned on.
 One-electron integrals computed using PRISM.
 NBasis=   170 RedAO= T EigKep=  1.61D-03  NBF=   170
 NBsUse=   170 1.00D-06 EigRej= -1.00D+00 NBFU=   170
 ExpMin= 1.43D-01 ExpMax= 2.52D+04 ExpMxC= 3.78D+03 IAcc=3 IRadAn=         5 AccDes= 0.00D+00
 Harris functional with IExCor=  402 and IRadAn=       5 diagonalized for initial guess.
 HarFok:  IExCor=  402 AccDes= 0.00D+00 IRadAn=         5 IDoV= 1 UseB2=F ITyADJ=14
 ICtDFT=  3500011 ScaDFX=  1.000000  1.000000  1.000000  1.000000
 FoFCou: FMM=F IPFlag=           0 FMFlag=      100000 FMFlg1=           0
         NFxFlg=           0 DoJE=T BraDBF=F KetDBF=T FulRan=T
         wScrn=  0.000000 ICntrl=       500 IOpCl=  0 I1Cent=   200000004 NGrid=           0
         NMat0=    1 NMatS0=      1 NMatT0=    0 NMatD0=    1 NMtDS0=    0 NMtDT0=    0
 Petite list used in FoFCou.
 Requested convergence on RMS density matrix=1.00D-08 within 128 cycles.
 Requested convergence on MAX density matrix=1.00D-06.
 Requested convergence on             energy=1.00D-06.
 No special actions if energy rises.
 Integral accuracy reduced to 1.0D-05 until final iterations.
 EnCoef did   100 forward-backward iterations
 EnCoef did     2 forward-backward iterations
 Initial convergence to 1.0D-05 achieved.  Increase integral accuracy.
 SCF Done:  E(RB3LYP) =  -1265.86143597     A.U. after   19 cycles
            NFock= 19  Conv=0.51D-08     -V/T= 2.0048
 DoSCS=F DFT=T ScalE2(SS,OS)=  1.000000  1.000000
 Range of M.O.s used for correlation:     1   170
 NBasis=   170 NAE=    45 NBE=    45 NFC=     0 NFV=     0
 NROrb=    170 NOA=    45 NOB=    45 NVA=   125 NVB=   125

 **** Warning!!: The smallest alpha delta epsilon is  0.91137298D-01

 Symmetrizing basis deriv contribution to polar:
 IMax=3 JMax=2 DiffMx= 0.00D+00
 G2DrvN: will do    17 centers at a time, making    1 passes.
 Calling FoFCou, ICntrl=  3107 FMM=F I1Cent=   0 AccDes= 0.00D+00.
 End of G2Drv F.D. properties file   721 does not exist.
 End of G2Drv F.D. properties file   722 does not exist.
 End of G2Drv F.D. properties file   788 does not exist.
          IDoAtm=1111111111111111
          Differentiating once with respect to electric field.
                with respect to dipole field.
          Differentiating once with respect to nuclear coordinates.
 Keep R1 ints in memory in canonical form, NReq=117582726.
          There are    51 degrees of freedom in the 1st order CPHF.  IDoFFX=6 NUNeed=     3.
     48 vectors produced by pass  0 Test12= 1.10D-14 1.96D-09 XBig12= 7.33D+02 2.47D+01.
 AX will form    48 AO Fock derivatives at one time.
     48 vectors produced by pass  1 Test12= 1.10D-14 1.96D-09 XBig12= 1.26D+02 2.16D+00.
     48 vectors produced by pass  2 Test12= 1.10D-14 1.96D-09 XBig12= 1.34D+00 2.50D-01.
     48 vectors produced by pass  3 Test12= 1.10D-14 1.96D-09 XBig12= 1.83D-02 3.33D-02.
     48 vectors produced by pass  4 Test12= 1.10D-14 1.96D-09 XBig12= 3.41D-05 7.37D-04.
     40 vectors produced by pass  5 Test12= 1.10D-14 1.96D-09 XBig12= 3.52D-08 2.07D-05.
      8 vectors produced by pass  6 Test12= 1.10D-14 1.96D-09 XBig12= 3.96D-11 6.48D-07.
      3 vectors produced by pass  7 Test12= 1.10D-14 1.96D-09 XBig12= 4.55D-14 3.08D-08.
 InvSVY:  IOpt=1 It=  1 EMax= 1.78D-14
 Solved reduced A of dimension   291 with    51 vectors.
 Isotropic polarizability for W=    0.000000      113.64 Bohr**3.
 End of Minotr F.D. properties file   721 does not exist.
 End of Minotr F.D. properties file   722 does not exist.
 End of Minotr F.D. properties file   788 does not exist.

 **********************************************************************

            Population analysis using the SCF Density.

 **********************************************************************

 Orbital symmetries:
       Occupied  (A) (A) (A) (A) (A) (A) (A) (A) (A) (A) (A) (A)
                 (A) (A) (A) (A) (A) (A) (A) (A) (A) (A) (A) (A)
                 (A) (A) (A) (A) (A) (A) (A) (A) (A) (A) (A) (A)
                 (A) (A) (A) (A) (A) (A) (A) (A) (A)
       Virtual   (A) (A) (A) (A) (A) (A) (A) (A) (A) (A) (A) (A)
                 (A) (A) (A) (A) (A) (A) (A) (A) (A) (A) (A) (A)
                 (A) (A) (A) (A) (A) (A) (A) (A) (A) (A) (A) (A)
                 (A) (A) (A) (A) (A) (A) (A) (A) (A) (A) (A) (A)
                 (A) (A) (A) (A) (A) (A) (A) (A) (A) (A) (A) (A)
                 (A) (A) (A) (A) (A) (A) (A) (A) (A) (A) (A) (A)
                 (A) (A) (A) (A) (A) (A) (A) (A) (A) (A) (A) (A)
                 (A) (A) (A) (A) (A) (A) (A) (A) (A) (A) (A) (A)
                 (A) (A) (A) (A) (A) (A) (A) (A) (A) (A) (A) (A)
                 (A) (A) (A) (A) (A) (A) (A) (A) (A) (A) (A) (A)
                 (A) (A) (A) (A) (A)
 The electronic state is 1-A.
 Alpha  occ. eigenvalues -- -101.56336-101.55221 -19.12152 -10.28924 -10.27110
 Alpha  occ. eigenvalues --  -10.24719 -10.24213 -10.22661 -10.21953 -10.21451
 Alpha  occ. eigenvalues --   -9.47943  -9.46821  -7.24350  -7.23359  -7.23340
 Alpha  occ. eigenvalues --   -7.23237  -7.22263  -7.22181  -1.02326  -0.90371
 Alpha  occ. eigenvalues --   -0.89368  -0.82936  -0.76078  -0.74192  -0.68180
 Alpha  occ. eigenvalues --   -0.59986  -0.56684  -0.54657  -0.52390  -0.49903
 Alpha  occ. eigenvalues --   -0.45324  -0.43384  -0.43034  -0.42145  -0.40133
 Alpha  occ. eigenvalues --   -0.39226  -0.38398  -0.37328  -0.35247  -0.33654
 Alpha  occ. eigenvalues --   -0.32287  -0.30609  -0.30388  -0.25464  -0.19923
 Alpha virt. eigenvalues --   -0.10810   0.00255   0.01926   0.05478   0.05846
 Alpha virt. eigenvalues --    0.09048   0.12244   0.14112   0.14378   0.14745
 Alpha virt. eigenvalues --    0.16025   0.17861   0.18877   0.22009   0.26772
 Alpha virt. eigenvalues --    0.29445   0.31073   0.32295   0.34086   0.37879
 Alpha virt. eigenvalues --    0.40212   0.42194   0.43106   0.46678   0.47408
 Alpha virt. eigenvalues --    0.48365   0.49613   0.50611   0.52569   0.54147
 Alpha virt. eigenvalues --    0.54676   0.56443   0.57649   0.58675   0.59096
 Alpha virt. eigenvalues --    0.61051   0.63119   0.65134   0.66533   0.67948
 Alpha virt. eigenvalues --    0.69971   0.71331   0.74958   0.77701   0.81041
 Alpha virt. eigenvalues --    0.81835   0.82046   0.82281   0.83489   0.84459
 Alpha virt. eigenvalues --    0.85677   0.86576   0.87332   0.89664   0.91342
 Alpha virt. eigenvalues --    0.91610   0.92732   0.95358   0.97207   0.99649
 Alpha virt. eigenvalues --    1.01573   1.05406   1.07279   1.09681   1.10002
 Alpha virt. eigenvalues --    1.13048   1.16444   1.22717   1.23059   1.24251
 Alpha virt. eigenvalues --    1.29619   1.31824   1.36592   1.40466   1.44021
 Alpha virt. eigenvalues --    1.48303   1.50644   1.58062   1.64776   1.65280
 Alpha virt. eigenvalues --    1.74437   1.76184   1.80594   1.82487   1.85891
 Alpha virt. eigenvalues --    1.88198   1.90864   1.92459   1.96546   2.00578
 Alpha virt. eigenvalues --    2.02438   2.03956   2.04905   2.07176   2.10723
 Alpha virt. eigenvalues --    2.15909   2.17270   2.20111   2.26059   2.27813
 Alpha virt. eigenvalues --    2.33232   2.39668   2.43571   2.49763   2.53692
 Alpha virt. eigenvalues --    2.57211   2.59559   2.62120   2.64184   2.66226
 Alpha virt. eigenvalues --    2.77870   2.89289   2.91787   2.98847   3.04095
 Alpha virt. eigenvalues --    4.00907   4.05006   4.14781   4.28654   4.30724
 Alpha virt. eigenvalues --    4.32358   4.36138   4.45111   4.49340   4.61186
          Condensed to atoms (all electrons):
               1          2          3          4          5          6
     1  C    5.308999   0.403227  -0.052754  -0.054464   0.346201  -0.088743
     2  C    0.403227   5.072112   0.487690  -0.046149  -0.072967  -0.024190
     3  C   -0.052754   0.487690   4.821820   0.585369  -0.057841   0.004602
     4  C   -0.054464  -0.046149   0.585369   4.940356   0.370909   0.021663
     5  C    0.346201  -0.072967  -0.057841   0.370909   5.083457   0.000772
     6  O   -0.088743  -0.024190   0.004602   0.021663   0.000772   8.092699
     7  C    0.239659  -0.046527  -0.009824  -0.010588  -0.034217   0.546013
     8  C   -0.131148   0.045924  -0.003817  -0.001211   0.007890  -0.085004
     9  Cl   0.008671  -0.014890   0.001058  -0.000089   0.000546   0.002357
    10  Cl   0.006591  -0.000887   0.000036  -0.000004  -0.000164   0.007979
    11  H    0.360857  -0.033640   0.005590   0.004346  -0.031726   0.001916
    12  H   -0.038299   0.360253  -0.035806   0.005240   0.005106  -0.000024
    13  H    0.005024  -0.047428   0.370998  -0.045924   0.006365   0.000100
    14  H    0.004484   0.005942  -0.037244   0.362489  -0.040517  -0.000527
    15  H   -0.031407   0.000919  -0.002711  -0.032496   0.347664   0.001266
    16  H   -0.033554   0.005124   0.003182  -0.027627   0.364946   0.011253
               7          8          9         10         11         12
     1  C    0.239659  -0.131148   0.008671   0.006591   0.360857  -0.038299
     2  C   -0.046527   0.045924  -0.014890  -0.000887  -0.033640   0.360253
     3  C   -0.009824  -0.003817   0.001058   0.000036   0.005590  -0.035806
     4  C   -0.010588  -0.001211  -0.000089  -0.000004   0.004346   0.005240
     5  C   -0.034217   0.007890   0.000546  -0.000164  -0.031726   0.005106
     6  O    0.546013  -0.085004   0.002357   0.007979   0.001916  -0.000024
     7  C    4.650223   0.327512  -0.061804  -0.053214  -0.016642  -0.003207
     8  C    0.327512   5.780656   0.186567   0.198292  -0.004693  -0.002082
     9  Cl  -0.061804   0.186567  16.915825  -0.064609   0.004385   0.004672
    10  Cl  -0.053214   0.198292  -0.064609  16.855669  -0.000050   0.000184
    11  H   -0.016642  -0.004693   0.004385  -0.000050   0.536178  -0.003063
    12  H   -0.003207  -0.002082   0.004672   0.000184  -0.003063   0.516076
    13  H   -0.000244  -0.000076   0.000014   0.000001  -0.000096  -0.002366
    14  H    0.000276  -0.000008   0.000001  -0.000000  -0.000110  -0.000132
    15  H    0.005040  -0.000030  -0.000029   0.000000  -0.002253  -0.000082
    16  H   -0.004941   0.000588  -0.000028  -0.000014   0.000584  -0.000135
              13         14         15         16
     1  C    0.005024   0.004484  -0.031407  -0.033554
     2  C   -0.047428   0.005942   0.000919   0.005124
     3  C    0.370998  -0.037244  -0.002711   0.003182
     4  C   -0.045924   0.362489  -0.032496  -0.027627
     5  C    0.006365  -0.040517   0.347664   0.364946
     6  O    0.000100  -0.000527   0.001266   0.011253
     7  C   -0.000244   0.000276   0.005040  -0.004941
     8  C   -0.000076  -0.000008  -0.000030   0.000588
     9  Cl   0.000014   0.000001  -0.000029  -0.000028
    10  Cl   0.000001  -0.000000   0.000000  -0.000014
    11  H   -0.000096  -0.000110  -0.002253   0.000584
    12  H   -0.002366  -0.000132  -0.000082  -0.000135
    13  H    0.557505  -0.003091  -0.000155  -0.000110
    14  H   -0.003091   0.539790   0.001035  -0.001256
    15  H   -0.000155   0.001035   0.571546  -0.028701
    16  H   -0.000110  -0.001256  -0.028701   0.513611
 Mulliken charges:
               1
     1  C   -0.253344
     2  C   -0.094513
     3  C   -0.080347
     4  C   -0.071818
     5  C   -0.296424
     6  O   -0.492130
     7  C    0.472485
     8  C   -0.319359
     9  Cl   0.017354
    10  Cl   0.050189
    11  H    0.178419
    12  H    0.193664
    13  H    0.159485
    14  H    0.168869
    15  H    0.170394
    16  H    0.197077
 Sum of Mulliken charges =  -0.00000
 Mulliken charges with hydrogens summed into heavy atoms:
               1
     1  C   -0.074926
     2  C    0.099151
     3  C    0.079138
     4  C    0.097051
     5  C    0.071047
     6  O   -0.492130
     7  C    0.472485
     8  C   -0.319359
     9  Cl   0.017354
    10  Cl   0.050189
 APT charges:
               1
     1  C    0.066152
     2  C    0.235320
     3  C   -0.197309
     4  C    0.148314
     5  C   -0.011855
     6  O   -0.522395
     7  C    0.023847
     8  C    0.793256
     9  Cl  -0.339260
    10  Cl  -0.414785
    11  H    0.007381
    12  H    0.044885
    13  H    0.052886
    14  H    0.041300
    15  H    0.007378
    16  H    0.064885
 Sum of APT charges =  -0.00000
 APT charges with hydrogens summed into heavy atoms:
               1
     1  C    0.073533
     2  C    0.280205
     3  C   -0.144424
     4  C    0.189615
     5  C    0.060408
     6  O   -0.522395
     7  C    0.023847
     8  C    0.793256
     9  Cl  -0.339260
    10  Cl  -0.414785
 Electronic spatial extent (au):  <R**2>=           1896.4688
 Charge=             -0.0000 electrons
 Dipole moment (field-independent basis, Debye):
    X=             -4.0731    Y=              2.6333    Z=              0.5646  Tot=              4.8829
 Quadrupole moment (field-independent basis, Debye-Ang):
   XX=            -63.8519   YY=            -74.1771   ZZ=            -67.1372
   XY=             -0.0072   XZ=             -0.8181   YZ=             -1.1795
 Traceless Quadrupole moment (field-independent basis, Debye-Ang):
   XX=              4.5368   YY=             -5.7884   ZZ=              1.2515
   XY=             -0.0072   XZ=             -0.8181   YZ=             -1.1795
 Octapole moment (field-independent basis, Debye-Ang**2):
  XXX=            -18.5135  YYY=              7.3647  ZZZ=              2.5635  XYY=              5.9015
  XXY=            -12.7267  XXZ=             -0.3335  XZZ=             -4.4823  YZZ=              0.7256
  YYZ=              1.9442  XYZ=              2.1659
 Hexadecapole moment (field-independent basis, Debye-Ang**3):
 XXXX=          -1550.4446 YYYY=           -548.9827 ZZZZ=           -255.7021 XXXY=             29.9136
 XXXZ=              7.3238 YYYX=              3.5469 YYYZ=             -5.9571 ZZZX=             -7.3898
 ZZZY=              2.5989 XXYY=           -344.4982 XXZZ=           -303.2977 YYZZ=           -135.6518
 XXYZ=            -10.6514 YYXZ=              2.2835 ZZXY=              1.4952
 N-N= 6.786772642406D+02 E-N=-4.347803269647D+03  KE= 1.259826921917D+03
  Exact polarizability: 177.967  -0.912  90.692  -2.752   2.724  72.258
 Approx polarizability: 377.488 -14.307 176.721 -15.305  22.284 122.951
 Calling FoFJK, ICntrl=    100127 FMM=F ISym2X=0 I1Cent= 0 IOpClX= 0 NMat=1 NMatS=1 NMatT=0.
 Full mass-weighted force constant matrix:
 Low frequencies ---   -0.0024    0.0018    0.0028    0.3818    2.2905    3.2188
 Low frequencies ---   46.1593   92.7824  127.3964
 Diagonal vibrational polarizability:
       46.1645651      13.4956714      20.4079246
 Harmonic frequencies (cm**-1), IR intensities (KM/Mole), Raman scattering
 activities (A**4/AMU), depolarization ratios for plane and unpolarized
 incident light, reduced masses (AMU), force constants (mDyne/A),
 and normal coordinates:
                           1         2         3         4         5
                           A         A         A         A         A
       Frequencies ---    46.1587   92.7822  127.3964  177.3610  249.1247
    Reduced masses ---     9.4099    5.1602    4.7759    7.6896    8.8384
   Force constants ---     0.0118    0.0262    0.0457    0.1425    0.3232
    IR Intensities ---     3.4214    1.4075    1.2674    3.5557    4.2453
 Coord Atom Element:
   1     1     6          0.02873   0.02136  -0.04359  -0.13048  -0.09994
   2     1     6         -0.00054  -0.12339  -0.00477  -0.06942   0.06774
   3     1     6          0.05334  -0.07527  -0.14774   0.04366   0.04061
   1     2     6         -0.21093   0.11425   0.00245  -0.18407  -0.23262
   2     2     6          0.11731  -0.01409   0.16804  -0.01776   0.20144
   3     2     6         -0.00022  -0.08903  -0.16616   0.03338   0.01064
   1     3     6         -0.24857  -0.01560   0.14864  -0.22213  -0.14431
   2     3     6          0.12915   0.18742   0.10667   0.02139   0.14555
   3     3     6         -0.08266   0.02094  -0.00645   0.05114   0.05124
   1     4     6         -0.04122  -0.18797   0.20016  -0.22023   0.06183
   2     4     6         -0.00886   0.24093  -0.13955  -0.01197  -0.13038
   3     4     6         -0.13961   0.11125   0.09999   0.07713   0.06665
   1     5     6          0.10555  -0.04517  -0.01923  -0.08117  -0.08366
   2     5     6         -0.05344  -0.05593  -0.16378  -0.20257  -0.02307
   3     5     6         -0.10414   0.02758   0.01298   0.03809   0.06472
   1     6     8         -0.08581   0.10807  -0.02752   0.24650  -0.18503
   2     6     8         -0.01717  -0.12920   0.03433   0.04209   0.06623
   3     6     8          0.39826  -0.11676   0.03020  -0.10060  -0.28427
   1     7     6          0.01412   0.02865  -0.01727   0.03704  -0.04192
   2     7     6         -0.03271  -0.11801   0.04626   0.10246   0.00640
   3     7     6          0.25882  -0.05889  -0.05418  -0.01250  -0.08904
   1     8     6          0.07720  -0.00380  -0.02574   0.03869  -0.00945
   2     8     6         -0.03807  -0.04915   0.02393   0.12752  -0.13223
   3     8     6          0.00612   0.02420  -0.05651   0.04100  -0.02906
   1     9    17         -0.00038  -0.09893   0.01750   0.26984   0.04670
   2     9    17         -0.00665  -0.00117   0.02347   0.03920  -0.17550
   3     9    17          0.08083   0.12082   0.15324  -0.01764   0.00762
   1    10    17          0.13850   0.08583  -0.09763  -0.09002   0.24523
   2    10    17         -0.02546   0.02878  -0.04371  -0.02842   0.08937
   3    10    17         -0.24605  -0.05270  -0.05258  -0.03597   0.07241
   1    11     1          0.13931   0.02522  -0.11912  -0.23300  -0.15584
   2    11     1         -0.06056  -0.17965  -0.06077  -0.02070   0.07239
   3    11     1          0.03920  -0.15064  -0.26970   0.04066   0.01024
   1    12     1         -0.24677   0.18098  -0.02957  -0.22622  -0.29224
   2    12     1          0.11025  -0.01701   0.29785   0.04080   0.28490
   3    12     1          0.05118  -0.16279  -0.27987   0.01594  -0.01279
   1    13     1         -0.39911  -0.02278   0.24982  -0.29243  -0.17756
   2    13     1          0.19878   0.33866   0.19579   0.12821   0.23703
   3    13     1         -0.09786   0.04565   0.02660   0.05741   0.06141
   1    14     1          0.00131  -0.35540   0.35454  -0.28284   0.24883
   2    14     1         -0.05930   0.42258  -0.27865   0.05394  -0.31613
   3    14     1         -0.20186   0.21200   0.23232   0.10793   0.09228
   1    15     1          0.13337   0.05415  -0.13467  -0.08517  -0.16516
   2    15     1         -0.07335  -0.04984  -0.24855  -0.30575  -0.02625
   3    15     1         -0.21122  -0.17084   0.06896  -0.18715   0.22630
   1    16     1          0.21702  -0.09163  -0.02614   0.04531  -0.10121
   2    16     1         -0.07275  -0.22928  -0.18649  -0.33897   0.07269
   3    16     1         -0.06816   0.18314   0.03670   0.18409  -0.02117
                           6         7         8         9        10
                           A         A         A         A         A
       Frequencies ---   259.3498  321.3348  370.3649  402.8129  447.6169
    Reduced masses ---     8.0494   11.6446    5.9222    2.6903    8.0650
   Force constants ---     0.3190    0.7084    0.4786    0.2572    0.9521
    IR Intensities ---     1.8504    4.7135   11.9325    5.5079    7.1132
 Coord Atom Element:
   1     1     6         -0.12088   0.01384   0.14434   0.04123   0.10769
   2     1     6         -0.03994  -0.01090  -0.05304  -0.06626  -0.19388
   3     1     6         -0.13247  -0.07210   0.11175   0.01105  -0.00227
   1     2     6          0.07818   0.06007   0.08511  -0.06427   0.07847
   2     2     6         -0.16065   0.03644  -0.05108   0.05949  -0.12993
   3     2     6         -0.11189  -0.08154   0.14550  -0.00229  -0.00205
   1     3     6          0.10400   0.12088  -0.08120  -0.05990  -0.12066
   2     3     6         -0.16859  -0.05833   0.11342   0.05900   0.12298
   3     3     6         -0.04989  -0.05795   0.04868  -0.00514   0.00363
   1     4     6         -0.14859   0.05409   0.10219   0.05933   0.05665
   2     4     6          0.04837  -0.01329   0.00799  -0.06453  -0.09276
   3     4     6         -0.00971  -0.02299  -0.01836  -0.01612   0.00763
   1     5     6         -0.21797  -0.01771   0.24938  -0.07527   0.01595
   2     5     6          0.06693   0.02956  -0.10232   0.16217  -0.02852
   3     5     6         -0.02787  -0.03811  -0.01109   0.04133   0.02748
   1     6     8         -0.19022   0.04504  -0.07438   0.16122  -0.34030
   2     6     8         -0.04677  -0.02454  -0.07448  -0.15329  -0.07741
   3     6     8          0.21637  -0.04270  -0.05344   0.02208  -0.11595
   1     7     6         -0.09935  -0.09341  -0.06847   0.01051  -0.04285
   2     7     6         -0.04973  -0.02647  -0.05267  -0.08655  -0.17031
   3     7     6         -0.04916   0.13448  -0.03198  -0.01091  -0.01833
   1     8     6         -0.03681  -0.28147  -0.08326  -0.00560  -0.05282
   2     8     6          0.00902   0.05904  -0.01009   0.00119  -0.01091
   3     8     6         -0.20654   0.75781  -0.17609  -0.06835   0.18006
   1     9    17          0.20410   0.06270   0.03704   0.01294   0.11519
   2     9    17         -0.04869  -0.15478  -0.09275  -0.00414   0.26620
   3     9    17          0.09555  -0.04521   0.02198   0.00849  -0.02030
   1    10    17          0.04752  -0.04100  -0.14522  -0.04472   0.02696
   2    10    17          0.17668   0.15731   0.18808   0.03019  -0.06244
   3    10    17          0.01551  -0.13729  -0.02658  -0.00592   0.00102
   1    11     1         -0.10579   0.10592   0.16869   0.10236   0.16918
   2    11     1         -0.04080  -0.10217  -0.02835  -0.09967  -0.21336
   3    11     1         -0.12482  -0.13945   0.15964   0.00120   0.00885
   1    12     1          0.17554  -0.06009   0.12235  -0.11353   0.14006
   2    12     1         -0.23319   0.18875  -0.11876   0.11410  -0.16739
   3    12     1         -0.13955  -0.12805   0.18343  -0.00864  -0.02968
   1    13     1          0.26891   0.20996  -0.29100  -0.10259  -0.28936
   2    13     1         -0.28512  -0.10590   0.21404   0.10227   0.33309
   3    13     1         -0.04100  -0.05080   0.02922  -0.00512   0.00951
   1    14     1         -0.25182   0.07257   0.09826   0.16632   0.08875
   2    14     1          0.15695  -0.02748   0.00590  -0.17520  -0.12460
   3    14     1          0.02556  -0.00172  -0.06469  -0.05012   0.01289
   1    15     1         -0.17774   0.00403   0.22436  -0.02012   0.08266
   2    15     1          0.13815   0.08350  -0.22958   0.40460   0.17631
   3    15     1          0.04742   0.04339  -0.23773   0.46229   0.33687
   1    16     1         -0.36475  -0.08897   0.46685  -0.36940  -0.22804
   2    16     1          0.07304   0.07357  -0.20938   0.41496   0.14782
   3    16     1         -0.05909  -0.09091   0.12351  -0.23886  -0.16474
                          11        12        13        14        15
                           A         A         A         A         A
       Frequencies ---   525.7267  608.5637  626.4906  739.0048  747.6185
    Reduced masses ---     3.3009    3.4874    4.7027    4.2389    1.7764
   Force constants ---     0.5375    0.7610    1.0875    1.3640    0.5850
    IR Intensities ---     7.0813   13.7364    9.0018    0.2511   42.0669
 Coord Atom Element:
   1     1     6          0.01960  -0.16209  -0.11981  -0.04884   0.04643
   2     1     6          0.00737   0.21235   0.07569   0.28720  -0.02820
   3     1     6          0.06343   0.02801   0.00711  -0.00365  -0.02612
   1     2     6         -0.15127   0.05443   0.08122   0.00490  -0.08540
   2     2     6          0.20480  -0.00630  -0.01229  -0.02551   0.00541
   3     2     6          0.01204   0.07057  -0.03869  -0.15417  -0.04427
   1     3     6          0.14263  -0.04765  -0.00542  -0.02208  -0.05482
   2     3     6         -0.15087   0.07901   0.07421  -0.03593   0.02045
   3     3     6          0.02671   0.01124  -0.04890  -0.08652   0.05024
   1     4     6         -0.03949   0.07109   0.02903  -0.06928  -0.04619
   2     4     6          0.09940   0.01907  -0.00927  -0.12571   0.05259
   3     4     6         -0.00258  -0.02828  -0.01436   0.04703   0.03287
   1     5     6          0.06076  -0.04128  -0.08067   0.09299  -0.01872
   2     5     6          0.01661   0.04095   0.00864  -0.00168   0.03885
   3     5     6         -0.01357  -0.04784  -0.04930   0.16634   0.00424
   1     6     8         -0.04597   0.06125   0.04432  -0.05440  -0.04121
   2     6     8         -0.14164  -0.15609  -0.04466  -0.05444   0.01957
   3     6     8         -0.06732   0.07166  -0.15948  -0.02101   0.00007
   1     7     6         -0.03641  -0.05416  -0.11532   0.21677   0.14204
   2     7     6         -0.13598  -0.09117  -0.02649  -0.16430  -0.04472
   3     7     6          0.04769  -0.19029   0.47083   0.04190  -0.03316
   1     8     6         -0.03296  -0.12123   0.02953   0.11554   0.09432
   2     8     6         -0.03739  -0.01999  -0.01702  -0.04382  -0.01441
   3     8     6         -0.03847   0.05484  -0.10429   0.03478   0.04300
   1     9    17          0.03495   0.02331   0.01496  -0.00017  -0.00576
   2     9    17          0.06559   0.04128   0.01655  -0.00069  -0.00805
   3     9    17         -0.00165  -0.00038  -0.00535  -0.00287  -0.00181
   1    10    17         -0.00714   0.03709  -0.00173  -0.05791  -0.03494
   2    10    17         -0.00173  -0.03006   0.00106   0.03885   0.02473
   3    10    17          0.00414   0.00350   0.00900  -0.00943  -0.00718
   1    11     1          0.11886  -0.14275   0.12357  -0.06022   0.05059
   2    11     1         -0.09271   0.25921  -0.11329   0.25851  -0.00938
   3    11     1         -0.00888   0.10583  -0.09657  -0.04463  -0.00182
   1    12     1         -0.40134   0.24635   0.46251  -0.04022   0.21930
   2    12     1          0.46591  -0.22119  -0.40976  -0.09417  -0.33480
   3    12     1         -0.00336   0.10364  -0.00854  -0.02597   0.00877
   1    13     1          0.28241   0.00273   0.19975  -0.07804   0.36332
   2    13     1         -0.34318  -0.08892  -0.11439   0.34976  -0.36857
   3    13     1          0.01845  -0.00810  -0.04562  -0.03315   0.05994
   1    14     1         -0.09994   0.32436   0.27498  -0.47954   0.44658
   2    14     1          0.15707  -0.23783  -0.24811   0.28345  -0.45604
   3    14     1         -0.03006  -0.03870   0.04723  -0.00884  -0.03387
   1    15     1          0.11628  -0.24541  -0.14788  -0.11450   0.09150
   2    15     1         -0.05629  -0.29215  -0.10054  -0.12550   0.04716
   3    15     1         -0.28347  -0.34191  -0.14815   0.31053  -0.19983
   1    16     1          0.19023   0.32950   0.08496   0.19801  -0.02976
   2    16     1         -0.14520  -0.11631  -0.02881   0.17439  -0.12469
   3    16     1          0.15520   0.14507   0.00796   0.01795   0.15852
                          16        17        18        19        20
                           A         A         A         A         A
       Frequencies ---   811.0280  822.6647  858.5956  909.3898  940.5415
    Reduced masses ---     5.9786    2.9666    1.5206    7.8986    2.0054
   Force constants ---     2.3170    1.1829    0.6605    3.8486    1.0452
    IR Intensities ---    15.7146    7.4672   18.9370  122.6306   22.9807
 Coord Atom Element:
   1     1     6          0.06949  -0.11027   0.03456  -0.17294   0.14348
   2     1     6          0.08205  -0.00508   0.02657  -0.07764   0.01864
   3     1     6         -0.23313  -0.01999   0.02011   0.10042  -0.03069
   1     2     6         -0.18871  -0.02351   0.11498   0.00300  -0.03454
   2     2     6         -0.17261  -0.15325  -0.08550   0.03230   0.02032
   3     2     6         -0.21475  -0.02052  -0.03097  -0.02443   0.00648
   1     3     6         -0.11112   0.00516  -0.03650  -0.00669   0.04050
   2     3     6         -0.06889  -0.01439   0.01610   0.03201  -0.04652
   3     3     6          0.22371   0.18895  -0.05807  -0.01572   0.00434
   1     4     6          0.04206   0.16510  -0.09462   0.04619  -0.02082
   2     4     6          0.02685   0.09773  -0.01688   0.06169  -0.09725
   3     4     6          0.12064   0.00664   0.01704  -0.06283   0.06986
   1     5     6          0.25746  -0.05637  -0.00787   0.10645  -0.12121
   2     5     6          0.12001   0.03724   0.03695  -0.02783   0.09505
   3     5     6          0.10017  -0.17507   0.06092   0.05866  -0.07173
   1     6     8          0.06048  -0.02703  -0.00314  -0.09761  -0.01767
   2     6     8         -0.01923  -0.00334   0.00413  -0.05819  -0.01298
   3     6     8          0.00263  -0.01811  -0.00128  -0.03537  -0.00594
   1     7     6         -0.19673   0.11440  -0.02127   0.13791   0.01013
   2     7     6          0.07449  -0.05753  -0.00165  -0.13540  -0.01515
   3     7     6          0.03912   0.05894   0.01718   0.00785   0.00045
   1     8     6         -0.17867   0.09385  -0.01094  -0.08331  -0.00392
   2     8     6          0.04322  -0.00058   0.03776   0.66192   0.13054
   3     8     6         -0.05194   0.01660  -0.02217  -0.05810  -0.00811
   1     9    17          0.00897  -0.00468  -0.00170  -0.02124  -0.00603
   2     9    17          0.00730  -0.00786  -0.00475  -0.08869  -0.01624
   3     9    17         -0.00005  -0.00070   0.00089   0.01299   0.00191
   1    10    17          0.04942  -0.02335   0.00702   0.04684   0.00829
   2    10    17         -0.03540   0.01518  -0.00718  -0.06738  -0.01207
   3    10    17          0.00922  -0.00507   0.00178   0.00925   0.00097
   1    11     1          0.16684  -0.04455   0.02845  -0.26088   0.42760
   2    11     1          0.11014   0.18574   0.06148  -0.18052  -0.03244
   3    11     1         -0.13881   0.27964   0.06551  -0.08257   0.06180
   1    12     1         -0.02910  -0.34134  -0.47786   0.20862  -0.02562
   2    12     1         -0.28877   0.44323   0.58563  -0.08589  -0.19981
   3    12     1         -0.26724  -0.35574  -0.14423  -0.12171   0.25547
   1    13     1          0.15443  -0.30642   0.07254   0.11167  -0.19436
   2    13     1          0.08495   0.21197  -0.00365  -0.26161   0.47411
   3    13     1          0.29770   0.17226  -0.04122  -0.04777   0.05310
   1    14     1         -0.01587   0.07696   0.30617   0.01349  -0.08867
   2    14     1          0.03197   0.18193  -0.42808   0.09288  -0.02100
   3    14     1         -0.32111  -0.02510  -0.01331  -0.14135   0.20028
   1    15     1          0.21242  -0.13971   0.07888   0.17975  -0.24281
   2    15     1          0.06237  -0.02948   0.02152   0.11943  -0.17395
   3    15     1          0.08212  -0.14624  -0.14563   0.21528  -0.38515
   1    16     1          0.17172  -0.08615   0.11466   0.04397   0.16385
   2    16     1          0.02804  -0.05286  -0.04761   0.14079  -0.11643
   3    16     1          0.18014  -0.09849   0.15867  -0.10204   0.15879
                          21        22        23        24        25
                           A         A         A         A         A
       Frequencies ---   965.9607  971.0296  985.9690 1048.5821 1100.5520
    Reduced masses ---     1.8197    1.5076    2.1181    1.9269    1.3086
   Force constants ---     1.0004    0.8375    1.2132    1.2483    0.9339
    IR Intensities ---     0.7591    5.1473   12.9678   64.3105    4.2469
 Coord Atom Element:
   1     1     6          0.06330  -0.07226  -0.09022   0.06172  -0.02150
   2     1     6          0.01613  -0.05825  -0.14616  -0.00529  -0.02926
   3     1     6         -0.10930   0.01386   0.08190   0.13872  -0.04218
   1     2     6          0.02827  -0.01917   0.00305  -0.09049  -0.05666
   2     2     6          0.00377   0.02727  -0.00812  -0.06207  -0.07467
   3     2     6          0.05538  -0.02111  -0.06331  -0.10578   0.04078
   1     3     6         -0.06967   0.08791  -0.03477   0.05506   0.05206
   2     3     6         -0.00842  -0.08861   0.05514   0.03946   0.06376
   3     3     6         -0.00510  -0.02065  -0.02409  -0.08871  -0.05527
   1     4     6          0.11186  -0.01361   0.07282   0.05428   0.03736
   2     4     6          0.05229   0.06524  -0.11217   0.06454   0.00632
   3     4     6         -0.08081  -0.05078  -0.01573  -0.05422  -0.00931
   1     5     6         -0.07637   0.01463  -0.01417  -0.05138   0.00737
   2     5     6         -0.00129   0.04049   0.16620  -0.05796   0.02396
   3     5     6          0.13738   0.09497   0.06517   0.06092   0.00756
   1     6     8         -0.00991   0.00150   0.00475   0.01300  -0.00559
   2     6     8         -0.00630   0.01226   0.03309   0.00810  -0.02220
   3     6     8         -0.00840   0.00068   0.00606   0.00272  -0.00519
   1     7     6          0.00965   0.00342   0.00419  -0.00910  -0.00364
   2     7     6         -0.00775   0.00562   0.02433   0.01411   0.00309
   3     7     6          0.02163   0.00269  -0.02542  -0.00162   0.02136
   1     8     6          0.03064   0.00785   0.02273  -0.06428   0.02170
   2     8     6          0.02026  -0.02745  -0.04451  -0.00229   0.00254
   3     8     6          0.00306   0.00713   0.01361  -0.01290   0.00768
   1     9    17         -0.00185   0.00130   0.00031   0.00148   0.00104
   2     9    17         -0.00342   0.00263   0.00370   0.00173   0.00022
   3     9    17          0.00023  -0.00030  -0.00015  -0.00078  -0.00057
   1    10    17         -0.00196  -0.00237  -0.00376   0.00544  -0.00124
   2    10    17          0.00048   0.00314   0.00523  -0.00369   0.00096
   3    10    17         -0.00117  -0.00031  -0.00080   0.00165  -0.00096
   1    11     1          0.04654  -0.19750   0.00575   0.22811  -0.45427
   2    11     1         -0.09945  -0.08501  -0.24170   0.30619   0.12479
   3    11     1         -0.27838  -0.08952   0.02327   0.66443  -0.09158
   1    12     1         -0.16445   0.16744   0.09567   0.00571  -0.40784
   2    12     1          0.08711  -0.12661   0.07046  -0.14524  -0.16643
   3    12     1          0.18348  -0.05612  -0.26637  -0.14118   0.52654
   1    13     1         -0.17408  -0.52098   0.26022   0.22619   0.36975
   2    13     1         -0.31779   0.54051  -0.12234   0.12326   0.26208
   3    13     1         -0.07738  -0.02615  -0.00224  -0.05606   0.02917
   1    14     1         -0.05424   0.29821  -0.33499   0.03838  -0.00505
   2    14     1          0.19433  -0.26903   0.29172   0.08551   0.06469
   3    14     1         -0.37109  -0.24722  -0.09881  -0.10232   0.07149
   1    15     1         -0.32440   0.09256  -0.04758  -0.15248   0.15918
   2    15     1         -0.27069   0.03348  -0.07845  -0.11467   0.11264
   3    15     1          0.05922  -0.08385  -0.36941   0.14546  -0.11203
   1    16     1         -0.20289   0.06907   0.49865  -0.26620  -0.00279
   2    16     1         -0.28462  -0.06302   0.02282  -0.20247  -0.03585
   3    16     1          0.38540   0.20259   0.26768   0.17351   0.06164
                          26        27        28        29        30
                           A         A         A         A         A
       Frequencies ---  1129.5100 1150.5013 1192.1199 1270.3764 1305.2528
    Reduced masses ---     1.1785    1.3258    1.2924    4.5516    2.4369
   Force constants ---     0.8859    1.0340    1.0822    4.3279    2.4461
    IR Intensities ---     7.1457   16.1938   21.0770  148.6264   22.7316
 Coord Atom Element:
   1     1     6          0.02661  -0.06804  -0.04410  -0.11743  -0.14330
   2     1     6         -0.00820   0.00622   0.07588   0.04610  -0.08155
   3     1     6         -0.02535   0.04262   0.04554  -0.02395  -0.11991
   1     2     6         -0.02888  -0.03780   0.01719  -0.03092   0.02653
   2     2     6         -0.01064  -0.06863  -0.00926  -0.01909   0.04169
   3     2     6         -0.02565  -0.02749  -0.01050   0.03061   0.08744
   1     3     6         -0.01815   0.00876  -0.02162   0.01315   0.02019
   2     3     6         -0.01871  -0.00249  -0.00558   0.00344   0.01942
   3     3     6         -0.06771  -0.04269   0.00411  -0.06675  -0.06471
   1     4     6          0.05619   0.02685   0.04902   0.01431  -0.05741
   2     4     6          0.01973   0.08793  -0.04210  -0.01010  -0.05485
   3     4     6          0.03427   0.01441   0.00346   0.02408   0.06429
   1     5     6          0.00218   0.02663  -0.03221   0.07582   0.17443
   2     5     6          0.02991  -0.00612  -0.02694  -0.00741   0.11207
   3     5     6          0.03477   0.00857  -0.00382   0.01796  -0.05142
   1     6     8         -0.00073   0.00859   0.01201  -0.03571   0.00754
   2     6     8         -0.00857   0.03762   0.03058  -0.13538   0.04540
   3     6     8         -0.00212   0.00752   0.00443  -0.00909  -0.00018
   1     7     6         -0.00479   0.01876   0.04356  -0.26494   0.07444
   2     7     6          0.00099  -0.00436  -0.02051   0.10050  -0.03889
   3     7     6          0.01428  -0.02912  -0.00810  -0.09611   0.02520
   1     8     6         -0.00802  -0.01821  -0.06716   0.39219  -0.07506
   2     8     6          0.00154  -0.02174  -0.01848   0.09351  -0.02471
   3     8     6         -0.00224  -0.00394  -0.01844   0.10145  -0.02026
   1     9    17          0.00055   0.00122   0.00255  -0.01500   0.00299
   2     9    17          0.00048   0.00183   0.00303  -0.01786   0.00360
   3     9    17         -0.00010  -0.00036  -0.00034   0.00210  -0.00034
   1    10    17          0.00115  -0.00036   0.00188  -0.01550   0.00237
   2    10    17         -0.00091   0.00110  -0.00132   0.01026  -0.00141
   3    10    17         -0.00006   0.00066   0.00112  -0.00163  -0.00000
   1    11     1         -0.21103   0.48007   0.27399   0.59946   0.29012
   2    11     1          0.19070  -0.47402  -0.23327  -0.08374   0.13190
   3    11     1          0.09691  -0.26099  -0.17603   0.22633   0.43039
   1    12     1          0.03549  -0.26992  -0.02576   0.06212  -0.02098
   2    12     1         -0.03951  -0.08343  -0.01796   0.01278   0.03808
   3    12     1         -0.07013   0.23047   0.04678  -0.12521   0.15846
   1    13     1         -0.44130  -0.02375  -0.02224   0.02760  -0.04341
   2    13     1         -0.35023  -0.02106   0.05113   0.04745  -0.05307
   3    13     1         -0.20634  -0.06004   0.01367  -0.06468  -0.09066
   1    14     1          0.06395   0.18019  -0.07903  -0.00139  -0.04067
   2    14     1          0.09897  -0.01809   0.08507   0.01901  -0.08519
   3    14     1          0.67068   0.31834  -0.02694   0.05500   0.03220
   1    15     1          0.16170  -0.21129   0.55085   0.24873  -0.23505
   2    15     1          0.10847  -0.14304   0.40099   0.15681  -0.18581
   3    15     1         -0.10646   0.20080  -0.27828   0.02678   0.16116
   1    16     1          0.04435   0.19113  -0.38327  -0.28975  -0.49201
   2    16     1         -0.03151   0.15038  -0.27084  -0.20435  -0.32311
   3    16     1          0.10288  -0.11007   0.17744   0.16083   0.26820
                          31        32        33        34        35
                           A         A         A         A         A
       Frequencies ---  1315.8574 1384.1322 1451.3091 1473.0809 1544.7686
    Reduced masses ---     1.3059    2.2574    2.0621    1.2613    3.7450
   Force constants ---     1.3322    2.5481    2.5591    1.6125    5.2654
    IR Intensities ---     1.3113    9.3257   42.3169    5.9862   41.4061
 Coord Atom Element:
   1     1     6          0.05013  -0.02902   0.03217   0.01246   0.01842
   2     1     6          0.03534   0.00625   0.04243   0.01871  -0.00702
   3     1     6          0.06806  -0.16696   0.01896  -0.01008  -0.02309
   1     2     6         -0.03305  -0.07046  -0.11753  -0.04616  -0.04068
   2     2     6         -0.03520  -0.03461  -0.11197  -0.04031  -0.00847
   3     2     6          0.04867   0.17828   0.06620   0.04649   0.12875
   1     3     6         -0.03304   0.02266   0.17089   0.05575  -0.13265
   2     3     6         -0.03318   0.01380   0.15047   0.04669  -0.12911
   3     3     6         -0.01537  -0.00032  -0.02291  -0.02415  -0.25816
   1     4     6         -0.00767  -0.01369  -0.04973  -0.02136   0.12862
   2     4     6         -0.00589   0.00330  -0.04822  -0.01343   0.11108
   3     4     6         -0.05920  -0.14034   0.05314   0.02892   0.30730
   1     5     6          0.05689  -0.04912   0.02690  -0.04156  -0.02931
   2     5     6          0.05586  -0.05261   0.01202   0.00238  -0.02099
   3     5     6         -0.03857   0.12536   0.02417  -0.07924  -0.03052
   1     6     8         -0.00125  -0.00124  -0.00216  -0.00400   0.00510
   2     6     8         -0.00737   0.00655  -0.01022  -0.01366   0.02916
   3     6     8          0.00004  -0.00223  -0.00242  -0.00102   0.00214
   1     7     6         -0.00449   0.05720   0.01335   0.02169   0.00468
   2     7     6          0.00523  -0.01157   0.00963   0.01570  -0.04358
   3     7     6         -0.00267   0.01735   0.00344   0.00451   0.00012
   1     8     6          0.00208  -0.03985  -0.00938  -0.01262  -0.01102
   2     8     6          0.00383  -0.00344   0.00314  -0.00062  -0.00159
   3     8     6          0.00110  -0.00998   0.00052  -0.00111  -0.00885
   1     9    17         -0.00007   0.00089   0.00035   0.00030   0.00056
   2     9    17         -0.00039   0.00072  -0.00003   0.00027   0.00082
   3     9    17          0.00012  -0.00029  -0.00030  -0.00034   0.00022
   1    10    17          0.00006   0.00079   0.00013   0.00037   0.00017
   2    10    17         -0.00015  -0.00089  -0.00026  -0.00033  -0.00040
   3    10    17         -0.00002  -0.00026  -0.00012  -0.00012   0.00020
   1    11     1         -0.26709   0.40678  -0.02944  -0.00253  -0.07878
   2    11     1         -0.15970   0.08451  -0.12993  -0.03404   0.01675
   3    11     1         -0.38026   0.17956  -0.24808  -0.09805  -0.05647
   1    12     1          0.18648   0.21905   0.02477   0.04905   0.22873
   2    12     1          0.11023   0.17704   0.01593   0.02663   0.13215
   3    12     1         -0.36705  -0.37523  -0.28070  -0.14541  -0.32515
   1    13     1          0.25568   0.29074  -0.33956  -0.08596   0.28054
   2    13     1          0.24927   0.23931  -0.31705  -0.08704   0.26840
   3    13     1          0.08316   0.08547  -0.20668  -0.07770  -0.16181
   1    14     1          0.03380   0.02249  -0.08664  -0.04180   0.08863
   2    14     1          0.00344   0.02946  -0.06862  -0.02289   0.10931
   3    14     1          0.38047   0.33522  -0.31608  -0.14681  -0.50282
   1    15     1         -0.22677   0.20322  -0.05406   0.04034   0.04541
   2    15     1         -0.15487   0.08229  -0.21926   0.34306  -0.00696
   3    15     1          0.08552  -0.11742  -0.38398   0.56779  -0.15554
   1    16     1         -0.32932   0.27520  -0.29158   0.45975   0.06697
   2    16     1         -0.22220   0.22840   0.20629  -0.35354   0.19011
   3    16     1          0.17008  -0.09358  -0.22022   0.34509  -0.22279
                          36        37        38        39        40
                           A         A         A         A         A
       Frequencies ---  1673.0004 3028.2065 3152.2226 3168.7734 3231.7031
    Reduced masses ---    11.6661    1.0720    1.0904    1.0888    1.0882
   Force constants ---    19.2384    5.7916    6.3835    6.4415    6.6962
    IR Intensities ---   143.7789   14.5755    2.3636    3.3737    3.5389
 Coord Atom Element:
   1     1     6         -0.04699   0.00081  -0.00117  -0.02966   0.00059
   2     1     6         -0.01774   0.00093  -0.00322  -0.06355   0.00092
   3     1     6          0.01452  -0.00183   0.00240   0.04911  -0.00045
   1     2     6          0.05768   0.00033   0.00015   0.00256   0.00438
   2     2     6          0.01812   0.00056  -0.00014   0.00177   0.00483
   3     2     6         -0.02734  -0.00041   0.00036   0.00017   0.00581
   1     3     6         -0.06286  -0.00092   0.00029   0.00028   0.01154
   2     3     6         -0.05941  -0.00072  -0.00014  -0.00006   0.01047
   3     3     6         -0.03571  -0.00007   0.00028  -0.00018  -0.05594
   1     4     6          0.00581  -0.00001   0.00253  -0.00013  -0.04404
   2     4     6          0.03080  -0.00122   0.00180  -0.00027  -0.04331
   3     4     6          0.05944   0.00079   0.00021  -0.00027   0.00624
   1     5     6          0.00890   0.05119   0.01596   0.00182   0.00057
   2     5     6          0.00475  -0.04490  -0.06408   0.00273  -0.00110
   3     5     6          0.00672   0.03447  -0.05583   0.00401  -0.00289
   1     6     8         -0.15798   0.00010   0.00072   0.00001  -0.00009
   2     6     8         -0.44782   0.00022   0.00049   0.00044  -0.00002
   3     6     8         -0.03281   0.00006   0.00032   0.00011  -0.00000
   1     7     6          0.37146  -0.00070  -0.00059  -0.00006   0.00044
   2     7     6          0.68737  -0.00033  -0.00132  -0.00042   0.00003
   3     7     6          0.06583  -0.00030  -0.00013   0.00004   0.00012
   1     8     6         -0.14870  -0.00006   0.00007  -0.00032  -0.00028
   2     8     6         -0.05353   0.00005   0.00003  -0.00045  -0.00000
   3     8     6         -0.00672   0.00013   0.00000  -0.00009  -0.00009
   1     9    17         -0.00113   0.00002  -0.00000  -0.00007   0.00002
   2     9    17         -0.00019   0.00002   0.00001   0.00013   0.00003
   3     9    17         -0.00456   0.00000   0.00001  -0.00007  -0.00001
   1    10    17          0.00821   0.00002  -0.00002   0.00002   0.00001
   2    10    17         -0.00415  -0.00000   0.00002   0.00000  -0.00001
   3    10    17         -0.00108  -0.00001  -0.00000   0.00003   0.00000
   1    11     1          0.16977  -0.00852   0.01557   0.33450  -0.00355
   2    11     1         -0.12574  -0.02057   0.03930   0.74894  -0.00739
   3    11     1         -0.00802   0.01961  -0.02990  -0.56074   0.00574
   1    12     1         -0.02469  -0.00103   0.00204  -0.02708  -0.06418
   2    12     1          0.04135  -0.00134   0.00235  -0.02594  -0.06669
   3    12     1          0.05730  -0.00042   0.00233  -0.02002  -0.06065
   1    13     1          0.03740   0.00156   0.00043   0.00027  -0.11947
   2    13     1          0.05563   0.00002  -0.00004   0.00062  -0.11289
   3    13     1         -0.00522  -0.00370   0.00061  -0.00115   0.65754
   1    14     1          0.03440   0.00848  -0.02984   0.00869   0.51087
   2    14     1          0.00134   0.00736  -0.02646   0.00788   0.50496
   3    14     1         -0.03250   0.00285   0.00090  -0.00127  -0.06415
   1    15     1         -0.04078  -0.63833  -0.10240  -0.01529  -0.00030
   2    15     1         -0.08215   0.68364   0.10131   0.01256  -0.00123
   3    15     1         -0.12806  -0.29588  -0.05872  -0.00644   0.00091
   1    16     1         -0.12089   0.03179  -0.10184   0.00434  -0.00383
   2    16     1          0.09987  -0.12982   0.67345  -0.03813   0.01853
   3    16     1         -0.08053  -0.11356   0.70718  -0.03921   0.02277
                          41        42
                           A         A
       Frequencies ---  3248.8397 3274.7518
    Reduced masses ---     1.0994    1.0962
   Force constants ---     6.8372    6.9260
    IR Intensities ---     9.2331    3.2524
 Coord Atom Element:
   1     1     6         -0.00062  -0.00145
   2     1     6         -0.00015  -0.00229
   3     1     6         -0.00016   0.00441
   1     2     6          0.00863  -0.05105
   2     2     6          0.00981  -0.05357
   3     2     6          0.01079  -0.04432
   1     3     6          0.00841   0.00605
   2     3     6          0.00759   0.00534
   3     3     6         -0.06300  -0.02124
   1     4     6          0.04473   0.00492
   2     4     6          0.04401   0.00497
   3     4     6         -0.00101   0.00081
   1     5     6         -0.00037   0.00046
   2     5     6          0.00048   0.00047
   3     5     6          0.00345   0.00124
   1     6     8         -0.00007   0.00021
   2     6     8         -0.00020   0.00016
   3     6     8         -0.00005   0.00011
   1     7     6          0.00008  -0.00103
   2     7     6          0.00013   0.00020
   3     7     6          0.00018  -0.00032
   1     8     6         -0.00007   0.00033
   2     8     6         -0.00002   0.00007
   3     8     6         -0.00007   0.00041
   1     9    17          0.00002  -0.00007
   2     9    17         -0.00001   0.00002
   3     9    17         -0.00001   0.00002
   1    10    17          0.00002  -0.00001
   2    10    17         -0.00001   0.00001
   3    10    17         -0.00000   0.00001
   1    11     1         -0.00013   0.01338
   2    11     1         -0.00192   0.02774
   3    11     1          0.00173  -0.02516
   1    12     1         -0.12284   0.57175
   2    12     1         -0.12810   0.58945
   3    12     1         -0.11398   0.51153
   1    13     1         -0.11824  -0.04134
   2    13     1         -0.11182  -0.03915
   3    13     1          0.67411   0.21680
   1    14     1         -0.48373  -0.04503
   2    14     1         -0.47785  -0.04471
   3    14     1          0.05612   0.00465
   1    15     1         -0.00255  -0.00230
   2    15     1          0.00373   0.00160
   3    15     1         -0.00210  -0.00152
   1    16     1          0.00329   0.00029
   2    16     1         -0.01653  -0.00505
   3    16     1         -0.02155  -0.00658
 Harmonic frequencies (cm**-1), IR intensities (KM/Mole), Raman scattering
 activities (A**4/AMU), depolarization ratios for plane and unpolarized
 incident light, reduced masses (AMU), force constants (mDyne/A),
 and normal coordinates:
                      1                      2                      3
                      A                      A                      A
 Frequencies --     46.1587                92.7822               127.3964
 Red. masses --      9.4099                 5.1602                 4.7759
 Frc consts  --      0.0118                 0.0262                 0.0457
 IR Inten    --      3.4214                 1.4075                 1.2674
  Atom  AN      X      Y      Z        X      Y      Z        X      Y      Z
     1   6     0.03  -0.00   0.05     0.02  -0.12  -0.08    -0.04  -0.00  -0.15
     2   6    -0.21   0.12  -0.00     0.11  -0.01  -0.09     0.00   0.17  -0.17
     3   6    -0.25   0.13  -0.08    -0.02   0.19   0.02     0.15   0.11  -0.01
     4   6    -0.04  -0.01  -0.14    -0.19   0.24   0.11     0.20  -0.14   0.10
     5   6     0.11  -0.05  -0.10    -0.05  -0.06   0.03    -0.02  -0.16   0.01
     6   8    -0.09  -0.02   0.40     0.11  -0.13  -0.12    -0.03   0.03   0.03
     7   6     0.01  -0.03   0.26     0.03  -0.12  -0.06    -0.02   0.05  -0.05
     8   6     0.08  -0.04   0.01    -0.00  -0.05   0.02    -0.03   0.02  -0.06
     9  17    -0.00  -0.01   0.08    -0.10  -0.00   0.12     0.02   0.02   0.15
    10  17     0.14  -0.03  -0.25     0.09   0.03  -0.05    -0.10  -0.04  -0.05
    11   1     0.14  -0.06   0.04     0.03  -0.18  -0.15    -0.12  -0.06  -0.27
    12   1    -0.25   0.11   0.05     0.18  -0.02  -0.16    -0.03   0.30  -0.28
    13   1    -0.40   0.20  -0.10    -0.02   0.34   0.05     0.25   0.20   0.03
    14   1     0.00  -0.06  -0.20    -0.36   0.42   0.21     0.35  -0.28   0.23
    15   1     0.13  -0.07  -0.21     0.05  -0.05  -0.17    -0.13  -0.25   0.07
    16   1     0.22  -0.07  -0.07    -0.09  -0.23   0.18    -0.03  -0.19   0.04
                      4                      5                      6
                      A                      A                      A
 Frequencies --    177.3610               249.1247               259.3498
 Red. masses --      7.6896                 8.8384                 8.0494
 Frc consts  --      0.1425                 0.3232                 0.3190
 IR Inten    --      3.5557                 4.2453                 1.8504
  Atom  AN      X      Y      Z        X      Y      Z        X      Y      Z
     1   6    -0.13  -0.07   0.04    -0.10   0.07   0.04    -0.12  -0.04  -0.13
     2   6    -0.18  -0.02   0.03    -0.23   0.20   0.01     0.08  -0.16  -0.11
     3   6    -0.22   0.02   0.05    -0.14   0.15   0.05     0.10  -0.17  -0.05
     4   6    -0.22  -0.01   0.08     0.06  -0.13   0.07    -0.15   0.05  -0.01
     5   6    -0.08  -0.20   0.04    -0.08  -0.02   0.06    -0.22   0.07  -0.03
     6   8     0.25   0.04  -0.10    -0.19   0.07  -0.28    -0.19  -0.05   0.22
     7   6     0.04   0.10  -0.01    -0.04   0.01  -0.09    -0.10  -0.05  -0.05
     8   6     0.04   0.13   0.04    -0.01  -0.13  -0.03    -0.04   0.01  -0.21
     9  17     0.27   0.04  -0.02     0.05  -0.18   0.01     0.20  -0.05   0.10
    10  17    -0.09  -0.03  -0.04     0.25   0.09   0.07     0.05   0.18   0.02
    11   1    -0.23  -0.02   0.04    -0.16   0.07   0.01    -0.11  -0.04  -0.12
    12   1    -0.23   0.04   0.02    -0.29   0.28  -0.01     0.18  -0.23  -0.14
    13   1    -0.29   0.13   0.06    -0.18   0.24   0.06     0.27  -0.29  -0.04
    14   1    -0.28   0.05   0.11     0.25  -0.32   0.09    -0.25   0.16   0.03
    15   1    -0.09  -0.31  -0.19    -0.17  -0.03   0.23    -0.18   0.14   0.05
    16   1     0.05  -0.34   0.18    -0.10   0.07  -0.02    -0.36   0.07  -0.06
                      7                      8                      9
                      A                      A                      A
 Frequencies --    321.3348               370.3649               402.8129
 Red. masses --     11.6446                 5.9222                 2.6903
 Frc consts  --      0.7084                 0.4786                 0.2572
 IR Inten    --      4.7135                11.9325                 5.5079
  Atom  AN      X      Y      Z        X      Y      Z        X      Y      Z
     1   6     0.01  -0.01  -0.07     0.14  -0.05   0.11     0.04  -0.07   0.01
     2   6     0.06   0.04  -0.08     0.09  -0.05   0.15    -0.06   0.06  -0.00
     3   6     0.12  -0.06  -0.06    -0.08   0.11   0.05    -0.06   0.06  -0.01
     4   6     0.05  -0.01  -0.02     0.10   0.01  -0.02     0.06  -0.06  -0.02
     5   6    -0.02   0.03  -0.04     0.25  -0.10  -0.01    -0.08   0.16   0.04
     6   8     0.05  -0.02  -0.04    -0.07  -0.07  -0.05     0.16  -0.15   0.02
     7   6    -0.09  -0.03   0.13    -0.07  -0.05  -0.03     0.01  -0.09  -0.01
     8   6    -0.28   0.06   0.76    -0.08  -0.01  -0.18    -0.01   0.00  -0.07
     9  17     0.06  -0.15  -0.05     0.04  -0.09   0.02     0.01  -0.00   0.01
    10  17    -0.04   0.16  -0.14    -0.15   0.19  -0.03    -0.04   0.03  -0.01
    11   1     0.11  -0.10  -0.14     0.17  -0.03   0.16     0.10  -0.10   0.00
    12   1    -0.06   0.19  -0.13     0.12  -0.12   0.18    -0.11   0.11  -0.01
    13   1     0.21  -0.11  -0.05    -0.29   0.21   0.03    -0.10   0.10  -0.01
    14   1     0.07  -0.03  -0.00     0.10   0.01  -0.06     0.17  -0.18  -0.05
    15   1     0.00   0.08   0.04     0.22  -0.23  -0.24    -0.02   0.40   0.46
    16   1    -0.09   0.07  -0.09     0.47  -0.21   0.12    -0.37   0.41  -0.24
                     10                     11                     12
                      A                      A                      A
 Frequencies --    447.6169               525.7267               608.5637
 Red. masses --      8.0650                 3.3009                 3.4874
 Frc consts  --      0.9521                 0.5375                 0.7610
 IR Inten    --      7.1132                 7.0813                13.7364
  Atom  AN      X      Y      Z        X      Y      Z        X      Y      Z
     1   6     0.11  -0.19  -0.00     0.02   0.01   0.06    -0.16   0.21   0.03
     2   6     0.08  -0.13  -0.00    -0.15   0.20   0.01     0.05  -0.01   0.07
     3   6    -0.12   0.12   0.00     0.14  -0.15   0.03    -0.05   0.08   0.01
     4   6     0.06  -0.09   0.01    -0.04   0.10  -0.00     0.07   0.02  -0.03
     5   6     0.02  -0.03   0.03     0.06   0.02  -0.01    -0.04   0.04  -0.05
     6   8    -0.34  -0.08  -0.12    -0.05  -0.14  -0.07     0.06  -0.16   0.07
     7   6    -0.04  -0.17  -0.02    -0.04  -0.14   0.05    -0.05  -0.09  -0.19
     8   6    -0.05  -0.01   0.18    -0.03  -0.04  -0.04    -0.12  -0.02   0.05
     9  17     0.12   0.27  -0.02     0.03   0.07  -0.00     0.02   0.04  -0.00
    10  17     0.03  -0.06   0.00    -0.01  -0.00   0.00     0.04  -0.03   0.00
    11   1     0.17  -0.21   0.01     0.12  -0.09  -0.01    -0.14   0.26   0.11
    12   1     0.14  -0.17  -0.03    -0.40   0.47  -0.00     0.25  -0.22   0.10
    13   1    -0.29   0.33   0.01     0.28  -0.34   0.02     0.00  -0.09  -0.01
    14   1     0.09  -0.12   0.01    -0.10   0.16  -0.03     0.32  -0.24  -0.04
    15   1     0.08   0.18   0.34     0.12  -0.06  -0.28    -0.25  -0.29  -0.34
    16   1    -0.23   0.15  -0.16     0.19  -0.15   0.16     0.33  -0.12   0.15
                     13                     14                     15
                      A                      A                      A
 Frequencies --    626.4906               739.0048               747.6185
 Red. masses --      4.7027                 4.2389                 1.7764
 Frc consts  --      1.0875                 1.3640                 0.5850
 IR Inten    --      9.0018                 0.2511                42.0669
  Atom  AN      X      Y      Z        X      Y      Z        X      Y      Z
     1   6    -0.12   0.08   0.01    -0.05   0.29  -0.00     0.05  -0.03  -0.03
     2   6     0.08  -0.01  -0.04     0.00  -0.03  -0.15    -0.09   0.01  -0.04
     3   6    -0.01   0.07  -0.05    -0.02  -0.04  -0.09    -0.05   0.02   0.05
     4   6     0.03  -0.01  -0.01    -0.07  -0.13   0.05    -0.05   0.05   0.03
     5   6    -0.08   0.01  -0.05     0.09  -0.00   0.17    -0.02   0.04   0.00
     6   8     0.04  -0.04  -0.16    -0.05  -0.05  -0.02    -0.04   0.02   0.00
     7   6    -0.12  -0.03   0.47     0.22  -0.16   0.04     0.14  -0.04  -0.03
     8   6     0.03  -0.02  -0.10     0.12  -0.04   0.03     0.09  -0.01   0.04
     9  17     0.01   0.02  -0.01    -0.00  -0.00  -0.00    -0.01  -0.01  -0.00
    10  17    -0.00   0.00   0.01    -0.06   0.04  -0.01    -0.03   0.02  -0.01
    11   1     0.12  -0.11  -0.10    -0.06   0.26  -0.04     0.05  -0.01  -0.00
    12   1     0.46  -0.41  -0.01    -0.04  -0.09  -0.03     0.22  -0.33   0.01
    13   1     0.20  -0.11  -0.05    -0.08   0.35  -0.03     0.36  -0.37   0.06
    14   1     0.27  -0.25   0.05    -0.48   0.28  -0.01     0.45  -0.46  -0.03
    15   1    -0.15  -0.10  -0.15    -0.11  -0.13   0.31     0.09   0.05  -0.20
    16   1     0.08  -0.03   0.01     0.20   0.17   0.02    -0.03  -0.12   0.16
                     16                     17                     18
                      A                      A                      A
 Frequencies --    811.0280               822.6647               858.5956
 Red. masses --      5.9786                 2.9666                 1.5206
 Frc consts  --      2.3170                 1.1829                 0.6605
 IR Inten    --     15.7146                 7.4672                18.9370
  Atom  AN      X      Y      Z        X      Y      Z        X      Y      Z
     1   6     0.07   0.08  -0.23    -0.11  -0.01  -0.02     0.03   0.03   0.02
     2   6    -0.19  -0.17  -0.21    -0.02  -0.15  -0.02     0.11  -0.09  -0.03
     3   6    -0.11  -0.07   0.22     0.01  -0.01   0.19    -0.04   0.02  -0.06
     4   6     0.04   0.03   0.12     0.17   0.10   0.01    -0.09  -0.02   0.02
     5   6     0.26   0.12   0.10    -0.06   0.04  -0.18    -0.01   0.04   0.06
     6   8     0.06  -0.02   0.00    -0.03  -0.00  -0.02    -0.00   0.00  -0.00
     7   6    -0.20   0.07   0.04     0.11  -0.06   0.06    -0.02  -0.00   0.02
     8   6    -0.18   0.04  -0.05     0.09  -0.00   0.02    -0.01   0.04  -0.02
     9  17     0.01   0.01  -0.00    -0.00  -0.01  -0.00    -0.00  -0.00   0.00
    10  17     0.05  -0.04   0.01    -0.02   0.02  -0.01     0.01  -0.01   0.00
    11   1     0.17   0.11  -0.14    -0.04   0.19   0.28     0.03   0.06   0.07
    12   1    -0.03  -0.29  -0.27    -0.34   0.44  -0.36    -0.48   0.59  -0.14
    13   1     0.15   0.08   0.30    -0.31   0.21   0.17     0.07  -0.00  -0.04
    14   1    -0.02   0.03  -0.32     0.08   0.18  -0.03     0.31  -0.43  -0.01
    15   1     0.21   0.06   0.08    -0.14  -0.03  -0.15     0.08   0.02  -0.15
    16   1     0.17   0.03   0.18    -0.09  -0.05  -0.10     0.11  -0.05   0.16
                     19                     20                     21
                      A                      A                      A
 Frequencies --    909.3898               940.5415               965.9607
 Red. masses --      7.8986                 2.0054                 1.8197
 Frc consts  --      3.8486                 1.0452                 1.0004
 IR Inten    --    122.6306                22.9807                 0.7591
  Atom  AN      X      Y      Z        X      Y      Z        X      Y      Z
     1   6    -0.17  -0.08   0.10     0.14   0.02  -0.03     0.06   0.02  -0.11
     2   6     0.00   0.03  -0.02    -0.03   0.02   0.01     0.03   0.00   0.06
[...]
   zx        -0.275166D+01     -0.407753D+00     -0.453687D+00
   zy         0.272407D+01      0.403666D+00      0.449139D+00
   zz         0.722579D+02      0.107075D+02      0.119137D+02

 ----------------------------------------------------------------------

 Dipole orientation:
     6         -1.24586536          0.77565445          2.42860171
     6          1.12817960         -0.49261602          3.13730196
     6          0.57319438         -2.96021260          3.98057154
     6         -2.00368977         -3.24502162          4.13089890
     6         -3.31821042         -0.76497262          3.73964049
     8         -2.42665316         -2.09570461         -0.96863652
     6         -1.11271358         -0.24824560         -0.41937562
     6          0.84861342          0.80220208         -1.88943331
    17          2.25111998          3.72478098         -1.20114919
    17          1.18318028         -0.15663530         -5.00629414
     1         -1.32938479          2.82657984          2.56478244
     1          2.99038418          0.32668600          2.93485395
     1          1.96232055         -4.42572762          4.32374432
     1         -2.97814966         -4.98826370          4.59300611
     1         -3.78212550          0.09215832          5.57781466
     1         -5.04996646         -0.92500164          2.63220283

 Electric dipole moment (dipole orientation):
 (Debye = 10**-18 statcoulomb cm , SI units = C m)
                  (au)            (Debye)         (10**-30 SI)
   Tot        0.192110D+01      0.488294D+01      0.162877D+02
   x          0.000000D+00      0.000000D+00      0.000000D+00
   y          0.000000D+00      0.000000D+00      0.000000D+00
   z          0.192110D+01      0.488294D+01      0.162877D+02

 Dipole polarizability, Alpha (dipole orientation).
 (esu units = cm**3 , SI units = C**2 m**2 J**-1)
 Alpha(0;0):
               (au)            (10**-24 esu)      (10**-40 SI)
   iso        0.113639D+03      0.168396D+02      0.187366D+02
   aniso      0.980465D+02      0.145290D+02      0.161657D+02
   xx         0.900524D+02      0.133444D+02      0.148476D+02
   yx         0.218535D+02      0.323835D+01      0.360316D+01
   yy         0.980014D+02      0.145223D+02      0.161582D+02
   zx        -0.259045D+02     -0.383865D+01     -0.427107D+01
   zy        -0.297663D+02     -0.441091D+01     -0.490780D+01
   zz         0.152864D+03      0.226521D+02      0.252038D+02

 ----------------------------------------------------------------------
 1\1\GINC-SWANNODE-0-12\Freq\RB3LYP\6-31G(d)\C7H6Cl2O1\ROOT\15-Jul-2020
 \0\\# int=ultrafine b3lyp/6-31g(d) freq=(hpmodes,intmodes)\\19-I1-freq
 -b3lyp-631gd-1\\0,1\C,-1.154609,0.730685,-0.622693\C,-1.265304,0.94329
 7,0.830539\C,-2.274569,0.100121,1.341344\C,-2.914838,-0.518243,0.29434
 5\C,-2.47472,0.059895,-1.017583\O,-0.502822,-1.614112,-0.532371\C,-0.0
 89428,-0.454223,-0.445986\C,1.174178,-0.044275,0.030053\Cl,1.773243,1.
 594807,-0.142771\Cl,2.412039,-1.237484,0.260648\H,-0.793741,1.554115,-
 1.236506\H,-0.630298,1.603405,1.406349\H,-2.462131,-0.078902,2.393741\
 H,-3.684826,-1.276306,0.389954\H,-3.195609,0.820811,-1.35449\H,-2.3648
 76,-0.688256,-1.804099\\Version=ES64L-G16RevB.01\State=1-A\HF=-1265.86
 1436\RMSD=5.093e-09\RMSF=1.471e-05\ZeroPoint=0.1119729\Thermal=0.12125
 08\Dipole=-1.6024878,1.0360033,0.2221332\DipoleDeriv=0.1789475,0.06114
 58,0.0876227,-0.1174811,0.0160005,-0.1384122,-0.310377,-0.0615819,0.00
 35083,0.7638785,0.1680401,-0.0955749,0.2156653,-0.0474022,0.0413809,0.
 1834093,-0.0814329,-0.0105153,-0.456411,-0.1403815,-0.0671839,-0.28217
 19,-0.2373962,-0.1361681,-0.4264997,-0.0428274,0.1018793,0.0523843,0.1
 649791,0.028605,-0.0691639,0.198556,0.0496657,0.5834262,0.0546447,0.19
 40028,-0.0312511,-0.1106342,-0.0273079,0.0643668,0.0489342,0.0878871,-
 0.0885609,0.0176161,-0.0532469,-0.2273105,-0.2014945,-0.1599053,-0.087
 3433,-0.991126,-0.3296745,-0.0742235,-0.1005567,-0.3487489,-0.8202326,
 0.3345961,0.3197069,0.2227832,0.6897672,0.4394863,-0.011117,0.2923437,
 0.2020074,1.4628098,-0.3905262,-0.0369299,0.0329467,1.1530744,-0.27020
 37,0.1941131,-0.3625232,-0.236117,-0.3566979,-0.1351133,-0.0054176,-0.
 5673786,-0.636296,0.0876289,0.1233217,0.1370617,-0.0247858,-0.7800875,
 0.3402443,-0.0909904,0.6243819,-0.4707987,0.0926372,-0.045291,0.071763
 ,0.0065302,-0.0283768,-0.0310003,0.0021098,-0.0151668,0.0110507,0.0762
 98,-0.0330889,0.0537612,0.0394686,0.0093415,-0.0433699,-0.0158628,-0.0
 096082,0.0716071,-0.0257373,-0.0346046,-0.020168,0.0537064,0.0887533,-
 0.0261013,0.0191522,-0.0417133,0.1165294,0.0325269,0.0542537,0.013249,
 -0.0466255,0.0130708,-0.0720827,0.0155512,-0.0428234,0.0469973,0.01816
 28,0.0111704,0.0261974,0.0638324,-0.0122901,0.0655097,-0.02373,0.09402
 94,0.0002177,0.0484493,-0.0969579,0.0254828,0.0342059,0.1434718,0.0161
 887,0.050155,-0.0213227,0.0302844,-0.0739272,-0.0289738,-0.0230295,0.0
 20898\Polar=177.9674153,-0.9119598,90.6921544,-2.7516562,2.7240724,72.
 2578902\Quadrupole=3.373015,-4.3035096,0.9304946,-0.0053239,-0.6082354
 ,-0.8769112\PG=C01 [X(C7H6Cl2O1)]\NImag=0\\0.40845627,0.16032914,0.467
 22313,-0.02514448,-0.12938977,0.54067173,-0.06116466,-0.02823705,0.018
 25098,0.44023443,-0.02115194,-0.07020764,-0.02390950,0.29743575,0.4314
 0678,-0.02115202,0.00715230,-0.22974315,0.03422698,0.09531333,0.541769
 33,-0.01405001,0.00701874,0.02306564,-0.17653760,-0.11637269,0.0428384
 2,0.39255262,-0.01343005,0.01276153,0.01463634,-0.10023630,-0.15582554
 ,0.03434407,0.22923889,0.32709981,0.01937108,0.02098422,-0.02804317,0.
 07909804,0.05565638,-0.14811215,-0.02304014,-0.00557864,0.83828792,-0.
 02714328,-0.02311885,0.02083563,-0.02900842,-0.03074292,-0.00925204,-0
 .14747619,-0.08890756,-0.11477162,0.47775792,-0.01337065,-0.02361234,0
 .01040571,-0.04649305,-0.02580941,-0.00119929,-0.07807503,-0.13063280,
 -0.10663667,0.32284174,0.45617308,0.01723461,0.00481276,-0.00309792,-0
 .03736080,-0.02058249,0.03101039,-0.09152143,-0.08502160,-0.29657312,0
 .06555532,0.03511821,0.56517615,-0.13991426,-0.04193270,-0.02549212,-0
 .00375748,0.00193886,-0.01303567,0.00544729,0.00109308,-0.00569929,-0.
 08522555,-0.02641822,0.04389357,0.46632792,-0.04272749,-0.08991305,-0.
 00987477,-0.01089674,-0.01148895,-0.02049046,0.00042161,0.00949868,-0.
 00795061,-0.02191549,-0.09483538,0.04473572,-0.05901274,0.53355328,-0.
 01003867,-0.01184887,-0.08291561,-0.02438859,-0.01073303,-0.02475595,-
 0.00776769,0.00036068,-0.04355102,0.02995952,0.03788373,-0.17502045,0.
 02904558,0.06450847,0.57647137,0.00361800,0.01577527,0.00243318,-0.014
 05694,-0.00100399,-0.00233053,0.00653549,0.01212989,0.00579938,0.01002
 900,-0.00467342,-0.01092159,-0.00438368,0.00616296,-0.00501511,0.15227
 550,0.01658250,-0.06146258,-0.00631870,-0.01121673,-0.00926278,0.01094
 524,0.00472260,0.00793644,0.00416008,0.00407787,-0.00577127,-0.0066888
 4,-0.00440557,-0.00213334,-0.00194341,0.18911769,0.65809495,0.00189595
 ,0.00199497,0.00783455,0.00242024,-0.00511627,-0.00144335,-0.00344294,
 -0.00519431,0.00068930,-0.00320728,0.00148898,-0.00051466,-0.00148128,
 0.00226267,-0.00288431,0.03478112,0.05083235,0.05135351,-0.05006189,-0
 .01806778,-0.02916788,0.01011224,0.00600382,0.04594794,-0.01134348,-0.
 00438554,-0.00736281,-0.01481659,0.00300043,0.01415201,-0.03521705,0.0
 1881742,-0.00431251,-0.12036082,-0.16044062,-0.01514704,0.50165250,-0.
 01250137,-0.03436685,0.02651895,0.03381760,-0.01268272,-0.04607902,-0.
 01658270,-0.01863364,-0.00660647,-0.01579007,0.01154231,0.01281715,0.0
 0412753,0.00365921,0.01009431,-0.16839594,-0.54874216,-0.02793974,0.20
 940840,0.72010715,0.00608271,-0.00903536,-0.05361461,0.01618674,-0.009
 54374,0.00616714,0.01195054,0.00183543,-0.00316091,0.00023012,-0.00144
 590,-0.00267157,-0.01441428,0.00890924,-0.00170855,-0.00930408,-0.0270
 4935,-0.06567796,0.07102943,0.03343424,0.17277212,-0.03313400,0.016784
 54,-0.00215900,-0.00738059,-0.00001681,-0.01187178,0.00274290,0.000632
 35,0.00450590,0.00688846,-0.00003589,-0.00740231,0.00018558,0.00074997
 ,0.00046362,-0.03093993,-0.03879700,-0.01417226,-0.25069559,-0.0559000
 3,-0.07056608,0.47956602,0.01893104,0.00308482,0.00452583,-0.00772147,
 -0.00156547,0.00415873,0.00485650,0.00560972,0.00162213,0.00210327,-0.
 00402673,-0.00472045,0.00223158,-0.00327119,0.00057171,-0.04841992,-0.
 04248292,-0.01825062,-0.04906863,-0.07039297,-0.01220430,0.05460339,0.
 33635994,-0.01284036,0.00399357,-0.00088887,-0.00817996,-0.00265703,-0
 .00732195,0.00714520,0.00560822,0.00371824,0.00328193,-0.00259122,-0.0
 0651030,0.00071148,0.00144845,0.00010314,-0.02282664,-0.03498401,0.004
 84967,-0.04561883,0.01453443,-0.04650704,0.10572989,-0.00548598,0.0822
 9095,-0.00424140,-0.00206597,-0.00146995,-0.00293651,-0.00245517,0.001
 93528,-0.00099575,0.00177911,-0.00112672,-0.00069610,-0.00080429,0.000
 22288,0.00024110,-0.00022484,0.00074362,-0.00442199,-0.00167627,-0.004
 61435,-0.00001506,-0.02387589,0.01008496,-0.05601930,-0.03979419,-0.00
 516702,0.06730727,0.00204131,-0.00314594,-0.00113830,0.00098480,-0.000
 78831,0.00207985,-0.00053387,0.00105554,-0.00141500,-0.00033766,-0.001
 19227,0.00169238,-0.00034037,0.00118127,-0.00086614,-0.00377066,-0.000
 43426,-0.00218493,-0.00790046,-0.01959010,0.00624944,-0.05053939,-0.13
 140084,0.00415759,0.05592773,0.19102839,-0.00065904,-0.00185288,-0.000
 90249,0.00222322,0.00243154,-0.00027467,0.00038948,-0.00087573,0.00057
 384,0.00028152,-0.00036742,-0.00010583,-0.00000221,-0.00002921,0.00016
 805,0.00093528,0.00474459,0.00604919,-0.01048442,-0.01231707,-0.007850
 55,0.00563625,0.01896138,-0.01112194,0.00093176,-0.01514770,0.01202522
 ,-0.00019494,-0.00549755,-0.00533101,0.00358820,-0.00070851,-0.0004382
 4,-0.00133155,-0.00138035,-0.00102081,-0.00093442,0.00046522,0.0017048
 7,-0.00096453,0.00240904,-0.00020608,0.00232073,-0.00238324,0.00186297
 ,-0.03021031,0.03732895,-0.00248720,-0.11154480,0.05767274,-0.02350576
 ,0.00492699,0.00501188,0.00128400,0.13655926,-0.00216182,0.00228293,0.
 00265721,-0.00243753,0.00013146,-0.00068956,0.00096546,0.00110483,0.00
 110626,0.00078975,0.00004460,-0.00158406,0.00008670,-0.00076251,-0.000
 07319,-0.00368156,0.00721331,-0.00100922,0.00924108,-0.01226297,-0.000
 89649,0.07364998,-0.09035387,0.01905010,0.01567100,-0.03821078,0.00411
 798,-0.09306649,0.13107210,-0.00272833,0.00215380,0.00592537,-0.000927
 08,0.00058698,-0.00231364,-0.00157611,-0.00105136,-0.00072146,-0.00116
 217,0.00062206,0.00087923,0.00025420,-0.00116487,0.00109254,0.00131549
 ,0.00515390,-0.00243067,-0.01130762,0.00020145,0.00168039,-0.01220724,
 0.00962722,-0.02055678,-0.00165729,0.00715336,0.00145141,0.02829888,-0
 .02301337,0.01516095,-0.07480966,-0.07693791,0.04683647,-0.00289862,-0
 .00157358,0.00604886,0.00307805,0.00029460,0.00139697,-0.00458814,-0.0
 0304037,-0.00292193,-0.00521237,-0.01432594,0.01546935,-0.00121305,0.0
 0235003,0.00024799,0.00461164,0.01316148,-0.01229776,0.00069193,0.0011
 5478,-0.00080294,-0.00245036,-0.00074148,-0.00054009,-0.00101247,0.000
 54587,0.00108566,0.08367550,-0.07849020,-0.20778287,0.12630714,0.00538
 927,0.00975427,-0.00716635,-0.00058199,-0.00038495,-0.00257558,-0.0009
 3991,-0.00056179,-0.00044001,0.00063012,-0.00538354,0.00512530,0.00254
 137,-0.00319904,0.00030003,-0.00612291,-0.01432060,0.00998907,-0.00120
 598,-0.00077118,-0.00006783,-0.00095064,0.00136328,-0.00092032,0.00052
 953,-0.00027328,-0.00036962,0.07909870,0.22058126,0.04940887,0.1199500
 8,-0.13937219,0.01162121,0.02423510,-0.01263106,-0.00047158,-0.0001495
 2,-0.00534734,-0.00276756,-0.00165345,-0.00165925,-0.00158979,-0.00911
 062,0.00861383,0.00072334,-0.00130903,-0.00039426,-0.00272178,-0.00140
 508,0.00182257,0.00063015,0.00195791,0.00012347,-0.00053630,-0.0013162
 7,0.00023538,-0.00018597,-0.00007653,-0.00015314,-0.05610135,-0.130836
 34,0.14647418,0.00574770,0.00265110,0.00468299,-0.14985507,-0.12165265
 ,-0.09475423,-0.00332993,-0.00997342,-0.01317166,-0.00100824,-0.004577
 02,0.00192928,-0.00026297,-0.00195673,0.00090829,0.00137747,0.00106397
 ,0.00030438,-0.00236342,-0.00114818,-0.00160799,-0.00044411,0.00266034
 ,0.00273111,-0.00095989,-0.00024695,0.00057060,-0.00035764,0.00017838,
 0.00016665,-0.00041847,0.00001463,-0.00000405,0.15292950,-0.00079917,0
 .00305739,-0.00033291,-0.12371528,-0.15713076,-0.09723642,-0.00469828,
 -0.00026214,-0.00950363,-0.00427598,0.00001476,-0.00043191,0.00001325,
 0.00225656,0.00142638,-0.00115375,-0.00055988,-0.00033006,0.00150940,0
 .00060829,0.00130505,0.00100438,-0.00152042,-0.00188774,-0.00146364,-0
 .00008254,0.00073986,0.00029883,-0.00034678,-0.00012850,0.00081314,-0.
 00025793,-0.00094148,0.13115527,0.15533847,-0.01732625,-0.01464665,-0.
 00532292,-0.09046557,-0.10318400,-0.14472300,0.00691519,0.00875354,0.0
 1232187,0.00280958,0.00239434,-0.00205841,0.00192546,-0.00232302,-0.00
 440870,0.00060801,0.00019020,0.00087510,-0.00183025,0.00068798,-0.0013
 2094,0.00007334,-0.00112626,0.00104049,0.00052080,0.00097837,-0.000309
 95,0.00002188,0.00027780,-0.00005205,0.00001644,0.00076116,0.00120700,
 0.09867001,0.10814036,0.14184898,-0.00038421,-0.00624913,0.00130937,-0
 .00100828,-0.00039023,0.02213873,-0.05620413,-0.01790423,0.04863843,0.
 00603305,0.00472036,-0.01675830,0.00227426,-0.00666485,-0.00231532,0.0
 0025169,0.00041018,0.00018795,0.00044327,-0.00092752,-0.00088714,0.000
 23512,-0.00020602,-0.00008514,-0.00000564,0.00001804,-0.00005180,-0.00
 012200,0.00012256,0.00002281,-0.00008149,0.00064682,0.00158820,-0.0006
 6968,0.00130824,-0.00075378,0.05059773,-0.00485235,0.00078446,0.000683
 99,0.00078854,0.00168974,0.01784775,-0.02087521,-0.05757899,0.04774630
 ,0.00462233,0.00753896,-0.01363421,-0.00574052,0.00346518,-0.00175025,
 -0.00014745,0.00011218,-0.00002140,0.00013949,-0.00006961,0.00080485,-
 0.00002307,0.00026132,-0.00020808,0.00000341,-0.00006811,0.00005530,-0
 .00011033,0.00004818,-0.00001245,-0.00014223,0.00027900,0.00023760,0.0
 0133133,-0.00082594,-0.00047197,0.02230960,0.04600481,-0.00058856,0.00
 062238,0.00007665,-0.00112064,-0.00079182,-0.00264449,0.04956445,0.045
 85450,-0.33395366,0.00614156,0.00673715,-0.01380351,-0.00073911,-0.002
 10132,-0.00122552,-0.00005479,-0.00030793,0.00018201,0.00003062,0.0003
 5100,0.00012573,-0.00028272,0.00001838,0.00004386,0.00007276,0.0000804
 3,-0.00001771,0.00017484,-0.00013513,0.00000718,0.00015865,-0.00018313
 ,-0.00011809,0.00036957,0.00012229,0.00017120,-0.05346549,-0.05066835,
 0.35138995,0.00004324,-0.00236208,0.00051756,0.00270310,-0.00484831,-0
 .00235531,-0.00194110,-0.00978178,0.00408087,-0.19712726,-0.15553756,0
 .01714756,0.00157573,-0.00142528,-0.00110001,0.00022908,0.00033612,-0.
 00003268,0.00083552,-0.00001092,-0.00026975,0.00010317,-0.00008881,0.0
 0011789,0.00010415,0.00009848,-0.00028195,-0.00009086,0.00009958,0.000
 13439,-0.00007630,-0.00027085,-0.00039300,-0.00079364,0.00017068,0.000
 58389,-0.00158195,0.00225599,-0.00025648,0.19671587,0.00072021,0.00087
 274,0.00074675,-0.00512256,0.00225771,-0.00037463,-0.00725053,0.000585
 60,0.00554974,-0.15553291,-0.19249106,0.01666610,-0.00644024,-0.002433
 07,-0.00340176,-0.00027486,0.00038260,0.00001222,0.00010068,-0.0005385
 3,-0.00003503,-0.00041471,-0.00005615,-0.00025230,-0.00017438,0.000179
 84,0.00024377,0.00001743,-0.00005669,-0.00008560,-0.00057320,0.0004362
 8,0.00017421,0.00020938,-0.00032374,0.00000938,0.00197549,-0.00176205,
 -0.00017303,0.17210533,0.19243772,0.00075641,0.00304118,-0.00515353,-0
 .00235886,-0.00232111,-0.00459521,-0.01735415,-0.01582610,0.00942907,0
 .01986652,0.02006140,-0.06274570,0.01737633,0.01466232,0.00560872,-0.0
 0004222,-0.00019768,0.00017298,-0.00074581,0.00036428,-0.00008766,0.00
 028445,0.00000961,0.00014782,0.00002073,-0.00013698,0.00013029,0.00006
 188,-0.00000353,-0.00006267,0.00140677,0.00031265,0.00081791,-0.000844
 55,-0.00062540,0.00097173,0.00077770,0.00056979,0.00067683,-0.01832267
 ,-0.01971875,0.05401788,-0.01730261,0.01733188,-0.00888553,-0.00145688
 ,-0.00112352,0.00263389,0.00075583,0.00111423,0.00150498,0.00862544,-0
 .00740037,0.00129220,-0.14999948,0.11346928,-0.04760805,-0.00032898,-0
 .00151254,-0.00032434,-0.00311011,0.00040181,-0.00256151,0.00007428,0.
 00108298,-0.00106937,-0.00009998,-0.00025001,-0.00002848,-0.00087372,0
 .00016291,0.00050509,0.00085924,-0.00005774,0.00066221,0.00038461,-0.0
 0049068,-0.00011865,-0.00040570,0.00062371,-0.00004376,-0.00087782,0.0
 0063608,-0.00042867,0.16589022,-0.01024629,0.00825184,-0.00647176,0.00
 012362,0.00075591,0.00048823,-0.00244238,-0.00125070,0.00011867,0.0078
 4980,-0.00926048,0.00665085,0.11776379,-0.16548298,0.05059564,0.002919
 79,0.00053500,0.00125954,-0.00305516,-0.00275678,-0.00226464,-0.000192
 06,0.00080615,-0.00019889,0.00017352,0.00012772,0.00000804,-0.00045508
 ,0.00019738,0.00027872,0.00045520,0.00071381,0.00040688,0.00035046,-0.
 00040393,0.00005989,-0.00015380,0.00032642,0.00006118,-0.00084847,0.00
 040087,0.00065178,-0.12631604,0.18175177,-0.00330639,0.00281076,-0.002
 67847,0.00012149,0.00143829,0.00021623,0.00132279,0.00077601,-0.001725
 56,-0.01846674,0.01803766,-0.01269906,-0.05289480,0.05414227,-0.067044
 14,0.00147820,0.00062563,0.00066788,-0.00124392,-0.00098817,-0.0000845
 2,0.00069612,0.00008510,0.00005240,-0.00007592,-0.00029111,0.00005137,
 -0.00020593,0.00018297,0.00017558,0.00026354,-0.00017142,0.00045282,0.
 00012513,-0.00027014,0.00000513,0.00107588,-0.00153870,-0.00024636,0.0
 0084003,-0.00027618,-0.00010323,0.05519428,-0.05905312,0.07400012,0.00
 453569,-0.01542167,-0.02028183,-0.00657694,-0.00333811,-0.00058029,0.0
 0209754,-0.00028292,0.00179740,-0.00130967,0.00939810,0.00375406,-0.05
 111453,0.01711981,0.02616204,-0.00093157,0.00177101,0.00072158,0.00053
 915,-0.00311314,-0.00116872,-0.00032914,0.00000241,0.00037851,0.000262
 48,0.00057861,-0.00020410,0.00024207,-0.00016589,-0.00021733,-0.000155
 45,-0.00023022,0.00013737,0.00002379,0.00032358,-0.00165008,0.00062797
 ,-0.00018324,0.00003909,0.00017907,0.00001878,-0.00045386,-0.00213434,
 0.01407310,0.01507623,0.05404390,0.00112713,-0.00782755,-0.00904623,-0
 .00246287,-0.00123430,0.00090622,0.00018888,-0.00108339,0.00332281,-0.
 00072343,0.01287982,0.01061041,0.01640545,-0.17791016,-0.13994956,0.00
 287458,-0.00022625,0.00189578,0.00082039,-0.00156003,-0.00005251,-0.00
 029967,-0.00028021,-0.00045930,-0.00006951,-0.00002289,0.00020788,-0.0
 0013208,0.00017211,0.00004828,-0.00053910,-0.00019272,-0.00016345,-0.0
 0005991,0.00043859,-0.00050112,0.00098446,-0.00020556,0.00051340,0.000
 10790,0.00010793,-0.00084346,0.00232799,-0.01471201,-0.01550984,-0.020
 55021,0.19165662,-0.00096553,-0.00074250,-0.00277536,0.00065261,-0.000
 82262,-0.00060447,0.00198232,0.00152847,-0.00383186,0.00066571,-0.0188
 5530,-0.01960601,0.02214193,-0.13762425,-0.18854338,0.00242097,0.00214
 696,0.00067102,-0.00121713,-0.00366824,0.00011637,0.00064166,0.0002496
 1,0.00053684,0.00011477,0.00010500,-0.00010160,-0.00002834,0.00008877,
 -0.00008224,-0.00026663,-0.00006476,-0.00007184,-0.00007552,-0.0000457
 6,-0.00024555,-0.00142211,0.00035983,-0.00066406,-0.00041035,0.0009151
 2,0.00077478,-0.00072429,0.00740898,0.00895981,-0.02351006,0.14902069,
 0.20546757\\-0.00000028,0.00001340,-0.00002191,0.00001295,-0.00000508,
 0.00000555,0.00000341,0.00000516,0.00000588,0.00000782,-0.00001209,-0.
 00000447,-0.00002818,0.00002772,-0.00000601,-0.00000519,-0.00002715,-0
 .00000425,0.00002986,0.00000992,0.00002338,-0.00002572,0.00004884,-0.0
 0001502,-0.00001245,-0.00002590,0.00000354,0.00002113,-0.00001959,0.00
 000416,-0.00000408,0.00000090,-0.00000011,-0.00000702,0.00000005,0.000
 00268,-0.00000453,-0.00000514,-0.00000096,-0.00000167,0.00000126,0.000
 00424,0.00000556,-0.00000613,0.00000062,0.00000839,-0.00000617,0.00000
 268\\\@


 LIFE CAN ONLY BE UNDERSTOOD BACKWARD, BUT MUST
 BE LIVED FORWARD. -- KIRKEGAARD
 Job cpu time:       0 days  0 hours 49 minutes 34.6 seconds.
 Elapsed time:       0 days  0 hours  4 minutes  8.4 seconds.
 File lengths (MBytes):  RWF=     67 Int=      0 D2E=      0 Chk=      3 Scr=      1
 Normal termination of Gaussian 16 at Wed Jul 15 21:35:13 2020.
