 Entering Gaussian System, Link 0=/usr/local/shared/gaussian/x86_64_sse4/16-B01/g16/g16
 Initial command:
 /usr/local/shared/gaussian/x86_64_sse4/16-B01/g16/l1.exe "/scratch/ccl59/ol17ryu_e_int2_SSR_H_2_TSe_spe/Gau-4110.inp" -scrdir="/scratch/ccl59/ol17ryu_e_int2_SSR_H_2_TSe_spe/"
 Entering Link 1 = /usr/local/shared/gaussian/x86_64_sse4/16-B01/g16/l1.exe PID=      4111.
  
 Copyright (c) 1988-2017, Gaussian, Inc.  All Rights Reserved.
  
 This is part of the Gaussian(R) 16 program.  It is based on
 the Gaussian(R) 09 system (copyright 2009, Gaussian, Inc.),
 the Gaussian(R) 03 system (copyright 2003, Gaussian, Inc.),
 the Gaussian(R) 98 system (copyright 1998, Gaussian, Inc.),
 the Gaussian(R) 94 system (copyright 1995, Gaussian, Inc.),
 the Gaussian 92(TM) system (copyright 1992, Gaussian, Inc.),
 the Gaussian 90(TM) system (copyright 1990, Gaussian, Inc.),
 the Gaussian 88(TM) system (copyright 1988, Gaussian, Inc.),
 the Gaussian 86(TM) system (copyright 1986, Carnegie Mellon
 University), and the Gaussian 82(TM) system (copyright 1983,
 Carnegie Mellon University). Gaussian is a federally registered
 trademark of Gaussian, Inc.
  
 This software contains proprietary and confidential information,
 including trade secrets, belonging to Gaussian, Inc.
  
 This software is provided under written license and may be
 used, copied, transmitted, or stored only in accord with that
 written license.
  
 The following legend is applicable only to US Government
 contracts under FAR:
  
                    RESTRICTED RIGHTS LEGEND
  
 Use, reproduction and disclosure by the US Government is
 subject to restrictions as set forth in subparagraphs (a)
 and (c) of the Commercial Computer Software - Restricted
 Rights clause in FAR 52.227-19.
  
 Gaussian, Inc.
 340 Quinnipiac St., Bldg. 40, Wallingford CT 06492
  
  
 ---------------------------------------------------------------
 Warning -- This program may not be used in any manner that
 competes with the business of Gaussian, Inc. or will provide
 assistance to any competitor of Gaussian, Inc.  The licensee
 of this program is prohibited from giving any competitor of
 Gaussian, Inc. access to this program.  By using this program,
 the user acknowledges that Gaussian, Inc. is engaged in the
 business of creating and licensing software in the field of
 computational chemistry and represents and warrants to the
 licensee that it is not a competitor of Gaussian, Inc. and that
 it will not use this program in any manner prohibited above.
 ---------------------------------------------------------------
  

 Cite this work as:
 Gaussian 16, Revision B.01,
 M. J. Frisch, G. W. Trucks, H. B. Schlegel, G. E. Scuseria, 
 M. A. Robb, J. R. Cheeseman, G. Scalmani, V. Barone, 
 G. A. Petersson, H. Nakatsuji, X. Li, M. Caricato, A. V. Marenich, 
 J. Bloino, B. G. Janesko, R. Gomperts, B. Mennucci, H. P. Hratchian, 
 J. V. Ortiz, A. F. Izmaylov, J. L. Sonnenberg, D. Williams-Young, 
 F. Ding, F. Lipparini, F. Egidi, J. Goings, B. Peng, A. Petrone, 
 T. Henderson, D. Ranasinghe, V. G. Zakrzewski, J. Gao, N. Rega, 
 G. Zheng, W. Liang, M. Hada, M. Ehara, K. Toyota, R. Fukuda, 
 J. Hasegawa, M. Ishida, T. Nakajima, Y. Honda, O. Kitao, H. Nakai, 
 T. Vreven, K. Throssell, J. A. Montgomery, Jr., J. E. Peralta, 
 F. Ogliaro, M. J. Bearpark, J. J. Heyd, E. N. Brothers, K. N. Kudin, 
 V. N. Staroverov, T. A. Keith, R. Kobayashi, J. Normand, 
 K. Raghavachari, A. P. Rendell, J. C. Burant, S. S. Iyengar, 
 J. Tomasi, M. Cossi, J. M. Millam, M. Klene, C. Adamo, R. Cammi, 
 J. W. Ochterski, R. L. Martin, K. Morokuma, O. Farkas, 
 J. B. Foresman, and D. J. Fox, Gaussian, Inc., Wallingford CT, 2016.
 
 ******************************************
 Gaussian 16:  ES64L-G16RevB.01 20-Dec-2017
                 3-Dec-2022 
 ******************************************
 %nproc=12
 Will use up to   12 processors via shared memory.
 %mem=4GB
 ----------------------------------
 # wb97xd/6-311g(d,p) int=ultrafine
 ----------------------------------
 1/38=1,172=1/1;
 2/12=2,17=6,18=5,40=1/2;
 3/5=4,6=6,7=101,11=2,25=1,30=1,74=-58,75=-5/1,2,3;
 4//1;
 5/5=2,38=5/2;
 6/7=2,8=2,9=2,10=2,28=1/1;
 99/5=1,9=1/99;
 ------------------------------
 ol17ryu_e_int2_SSR_H_2_TSe_spe
 ------------------------------
 Symbolic Z-matrix:
 Charge =  1 Multiplicity = 1
 C                     2.33263  -0.64333   1.55619 
 N                     1.31211  -1.68009   1.19243 
 B                     0.59094  -1.01848  -0.09825 
 C                    -0.27486  -2.03161  -0.97992 
 C                    -1.24207  -2.86323  -0.37291 
 O                    -1.24437  -2.82181   1.00358 
 C                    -2.13132  -3.64533   1.79049 
 C                    -2.10458  -3.03706   3.18747 
 C                    -1.66717  -5.10111   1.78444 
 C                    -2.13331  -3.62113  -1.1402 
 C                    -2.04635  -3.57514  -2.53573 
 C                    -1.08331  -2.78679  -3.16342 
 C                    -0.21164  -2.0246   -2.37777 
 O                    -0.22046   0.05967   0.53691 
 C                    -1.54146   0.32398   0.21196 
 C                    -1.6306    1.53037  -0.73453 
 C                    -0.71499   1.43721  -1.92699 
 N                    -0.74648   2.76972   0.26086 
 N                    -0.37694   3.59235   0.90032 
 Si                   -3.36631   2.42419  -1.06358 
 C                    -3.08397   3.61737  -2.48906 
 C                    -3.92697   3.34222   0.47656 
 C                    -4.50517   0.99551  -1.49054 
 C                    -5.80269   0.97025  -0.94458 
 C                    -6.65812  -0.10871  -1.17046 
 C                    -6.22724  -1.19447  -1.93574 
 C                    -4.94565  -1.18771  -2.49077 
 C                    -4.10014  -0.09939  -2.27753 
 C                    -2.40604   0.39169   1.45888 
 C                    -1.92112   1.00122   2.62223 
 C                    -2.72136   1.08061   3.76213 
 C                    -4.01112   0.54101   3.75315 
 C                    -4.48496  -0.10057   2.60702 
 C                    -3.68117  -0.18437   1.46864 
 O                     1.7517   -0.47835  -0.76823 
 C                     2.72244   0.0125    0.15701 
 C                     4.11726  -0.39935  -0.33788 
 C                     4.25391  -1.3723   -1.32999 
 C                     5.52019  -1.79054  -1.76047 
 C                     5.65667  -2.86971  -2.80959 
 C                     6.65164  -1.20847  -1.18193 
 C                     6.5439   -0.21586  -0.19962 
 C                     7.7818    0.43181   0.37547 
 C                     5.26798   0.18187   0.20953 
 C                     2.63832   1.54889   0.20189 
 C                     2.50734   2.2203   -1.02273 
 C                     2.43355   3.6124   -1.09033 
 C                     2.31196   4.31766  -2.42114 
 C                     2.50556   4.34481   0.10317 
 C                     2.66634   3.70889   1.33812 
 C                     2.72656   4.50751   2.61869 
 C                     2.73484   2.30611   1.37018 
 C                     2.04556  -2.97817   0.9924 
 C                     3.40076  -2.83273   1.72402 
 C                     3.3807   -1.42092   2.35659 
 H                     1.81408   0.10045   2.15793 
 H                     0.61296  -1.78432   1.92691 
 H                    -3.14585  -3.55917   1.37778 
 H                    -2.77897  -3.585     3.85313 
 H                    -2.40944  -1.98862   3.16249 
 H                    -1.09241  -3.10075   3.6058 
 H                    -1.61123  -5.51013   0.77243 
 H                    -0.67202  -5.17615   2.23791 
 H                    -2.35549  -5.7208    2.36869 
 H                    -2.88697  -4.24492  -0.67455 
 H                    -2.73309  -4.17522  -3.12707 
 H                    -1.00743  -2.77045  -4.24682 
 H                     0.54196  -1.40079  -2.85254 
 H                    -1.97076  -0.4526   -0.44873 
 H                    -0.64925   2.375    -2.48149 
 H                     0.27704   1.07803  -1.65611 
 H                    -1.16541   0.68503  -2.58758 
 H                    -4.01066   4.1729   -2.67527 
 H                    -2.82155   3.09984  -3.41744 
 H                    -2.30024   4.3527   -2.26968 
 H                    -4.05027   2.6781    1.33612 
 H                    -4.89066   3.82561   0.27648 
 H                    -3.22611   4.13891   0.74881 
 H                    -6.14848   1.78769  -0.31766 
 H                    -7.65586  -0.10607  -0.74065 
 H                    -6.8877   -2.0412   -2.09995 
 H                    -4.59548  -2.02911  -3.08072 
 H                    -3.10964  -0.13432  -2.72333 
 H                    -0.90604   1.38549   2.64035 
 H                    -2.3378    1.5571    4.65995 
 H                    -4.63417   0.60477   4.6405 
 H                    -5.47517  -0.54698   2.59923 
 H                    -4.04674  -0.70095   0.58742 
 H                     3.36243  -1.79734  -1.77778 
 H                     6.53088  -2.70174  -3.44735 
 H                     5.77984  -3.85749  -2.34599 
 H                     4.77137  -2.91861  -3.45211 
 H                     7.64013  -1.52435  -1.51044 
 H                     8.22038   1.14238  -0.33677 
 H                     8.55301  -0.31238   0.60354 
 H                     7.55956   0.9826    1.2951 
 H                     5.1736    0.96947   0.95299 
 H                     2.47879   1.63267  -1.93506 
 H                     1.88729   3.66103  -3.18802 
 H                     1.68421   5.21292  -2.34804 
 H                     3.29539   4.64393  -2.78233 
 H                     2.45092   5.43116   0.06732 
 H                     1.72596   4.62869   3.05567 
 H                     3.35163   4.01454   3.37066 
 H                     3.12942   5.51069   2.44798 
 H                     2.87842   1.82456   2.33374 
 H                     1.41088  -3.78223   1.36735 
 H                     2.17532  -3.11723  -0.08095 
 H                     4.21918  -2.91646   1.00624 
 H                     3.5394   -3.60798   2.4823 
 H                     4.36237  -0.94556   2.34219 
 H                     3.05125  -1.47312   3.40105 
 
 Stoichiometry    C47H57BN3O3Si(1+)
 Framework group  C1[X(C47H57BN3O3Si)]
 Deg. of freedom   330
 Full point group                 C1      NOp   1
 Largest Abelian subgroup         C1      NOp   1
 Largest concise Abelian subgroup C1      NOp   1
                         Standard orientation:                         
 ---------------------------------------------------------------------
 Center     Atomic      Atomic             Coordinates (Angstroms)
 Number     Number       Type             X           Y           Z
 ---------------------------------------------------------------------
      1          6           0        2.332633   -0.643334    1.556188
      2          7           0        1.312112   -1.680087    1.192433
      3          5           0        0.590935   -1.018475   -0.098245
      4          6           0       -0.274859   -2.031606   -0.979915
      5          6           0       -1.242065   -2.863229   -0.372910
      6          8           0       -1.244374   -2.821809    1.003583
      7          6           0       -2.131322   -3.645327    1.790485
      8          6           0       -2.104583   -3.037061    3.187466
      9          6           0       -1.667173   -5.101113    1.784441
     10          6           0       -2.133307   -3.621127   -1.140199
     11          6           0       -2.046354   -3.575136   -2.535733
     12          6           0       -1.083312   -2.786793   -3.163418
     13          6           0       -0.211639   -2.024603   -2.377768
     14          8           0       -0.220459    0.059665    0.536909
     15          6           0       -1.541462    0.323975    0.211962
     16          6           0       -1.630598    1.530366   -0.734531
     17          6           0       -0.714991    1.437208   -1.926992
     18          7           0       -0.746479    2.769721    0.260857
     19          7           0       -0.376943    3.592354    0.900317
     20         14           0       -3.366306    2.424190   -1.063578
     21          6           0       -3.083973    3.617365   -2.489059
     22          6           0       -3.926973    3.342219    0.476563
     23          6           0       -4.505171    0.995512   -1.490539
     24          6           0       -5.802685    0.970251   -0.944583
     25          6           0       -6.658115   -0.108714   -1.170456
     26          6           0       -6.227235   -1.194471   -1.935738
     27          6           0       -4.945650   -1.187711   -2.490765
     28          6           0       -4.100138   -0.099387   -2.277528
     29          6           0       -2.406041    0.391694    1.458881
     30          6           0       -1.921121    1.001221    2.622226
     31          6           0       -2.721362    1.080613    3.762125
     32          6           0       -4.011124    0.541012    3.753146
     33          6           0       -4.484963   -0.100566    2.607021
     34          6           0       -3.681173   -0.184366    1.468635
     35          8           0        1.751696   -0.478346   -0.768234
     36          6           0        2.722441    0.012498    0.157007
     37          6           0        4.117260   -0.399353   -0.337877
     38          6           0        4.253910   -1.372301   -1.329988
     39          6           0        5.520191   -1.790537   -1.760471
     40          6           0        5.656672   -2.869714   -2.809592
     41          6           0        6.651637   -1.208467   -1.181930
     42          6           0        6.543900   -0.215855   -0.199619
     43          6           0        7.781804    0.431811    0.375469
     44          6           0        5.267984    0.181868    0.209525
     45          6           0        2.638318    1.548886    0.201892
     46          6           0        2.507340    2.220297   -1.022735
     47          6           0        2.433549    3.612399   -1.090332
     48          6           0        2.311959    4.317663   -2.421135
     49          6           0        2.505557    4.344810    0.103173
     50          6           0        2.666336    3.708889    1.338120
     51          6           0        2.726560    4.507510    2.618688
     52          6           0        2.734841    2.306105    1.370179
     53          6           0        2.045560   -2.978168    0.992400
     54          6           0        3.400756   -2.832726    1.724021
     55          6           0        3.380700   -1.420924    2.356589
     56          1           0        1.814075    0.100450    2.157932
     57          1           0        0.612960   -1.784318    1.926909
     58          1           0       -3.145847   -3.559165    1.377778
     59          1           0       -2.778970   -3.584998    3.853127
     60          1           0       -2.409439   -1.988615    3.162489
     61          1           0       -1.092414   -3.100749    3.605802
     62          1           0       -1.611231   -5.510126    0.772434
     63          1           0       -0.672015   -5.176151    2.237914
     64          1           0       -2.355492   -5.720804    2.368694
     65          1           0       -2.886967   -4.244922   -0.674547
     66          1           0       -2.733087   -4.175216   -3.127073
     67          1           0       -1.007431   -2.770447   -4.246819
     68          1           0        0.541955   -1.400794   -2.852542
     69          1           0       -1.970761   -0.452600   -0.448730
     70          1           0       -0.649251    2.375004   -2.481489
     71          1           0        0.277040    1.078029   -1.656107
     72          1           0       -1.165414    0.685028   -2.587579
     73          1           0       -4.010662    4.172902   -2.675265
     74          1           0       -2.821547    3.099841   -3.417435
     75          1           0       -2.300242    4.352697   -2.269683
     76          1           0       -4.050267    2.678096    1.336122
     77          1           0       -4.890659    3.825611    0.276484
     78          1           0       -3.226114    4.138911    0.748813
     79          1           0       -6.148485    1.787694   -0.317664
     80          1           0       -7.655857   -0.106074   -0.740654
     81          1           0       -6.887701   -2.041198   -2.099946
     82          1           0       -4.595479   -2.029109   -3.080722
     83          1           0       -3.109643   -0.134322   -2.723331
     84          1           0       -0.906041    1.385492    2.640349
     85          1           0       -2.337802    1.557103    4.659948
     86          1           0       -4.634170    0.604767    4.640500
     87          1           0       -5.475174   -0.546979    2.599234
     88          1           0       -4.046741   -0.700946    0.587418
     89          1           0        3.362429   -1.797335   -1.777775
     90          1           0        6.530882   -2.701744   -3.447351
     91          1           0        5.779836   -3.857493   -2.345991
     92          1           0        4.771371   -2.918611   -3.452109
     93          1           0        7.640127   -1.524353   -1.510442
     94          1           0        8.220379    1.142375   -0.336768
     95          1           0        8.553009   -0.312382    0.603539
     96          1           0        7.559559    0.982598    1.295098
     97          1           0        5.173600    0.969471    0.952991
     98          1           0        2.478788    1.632671   -1.935057
     99          1           0        1.887292    3.661029   -3.188015
    100          1           0        1.684212    5.212918   -2.348035
    101          1           0        3.295393    4.643925   -2.782327
    102          1           0        2.450920    5.431163    0.067318
    103          1           0        1.725958    4.628686    3.055672
    104          1           0        3.351634    4.014535    3.370663
    105          1           0        3.129417    5.510691    2.447982
    106          1           0        2.878418    1.824557    2.333741
    107          1           0        1.410876   -3.782229    1.367351
    108          1           0        2.175324   -3.117230   -0.080953
    109          1           0        4.219182   -2.916463    1.006236
    110          1           0        3.539402   -3.607976    2.482298
    111          1           0        4.362373   -0.945555    2.342193
    112          1           0        3.051247   -1.473122    3.401048
 ---------------------------------------------------------------------
 Rotational constants (GHZ):           0.0746631           0.0431623           0.0368912
 Standard basis: 6-311G(d,p) (5D, 7F)
 There are  1395 symmetry adapted cartesian basis functions of A   symmetry.
 There are  1340 symmetry adapted basis functions of A   symmetry.
  1340 basis functions,  2230 primitive gaussians,  1395 cartesian basis functions
   201 alpha electrons      201 beta electrons
       nuclear repulsion energy      8605.8531038740 Hartrees.
 NAtoms=  112 NActive=  112 NUniq=  112 SFac= 1.00D+00 NAtFMM=   60 NAOKFM=T Big=T
 Integral buffers will be    131072 words long.
 Raffenetti 2 integral format.
 Two-electron integral symmetry is turned on.
 Nuclear repulsion after empirical dispersion term =     8605.7117431840 Hartrees.
 One-electron integrals computed using PRISM.
 NBasis=  1340 RedAO= T EigKep=  1.28D-04  NBF=  1340
 NBsUse=  1340 1.00D-06 EigRej= -1.00D+00 NBFU=  1340
 ExpMin= 6.54D-02 ExpMax= 6.94D+04 ExpMxC= 2.33D+03 IAcc=3 IRadAn=         5 AccDes= 0.00D+00
 Harris functional with IExCor= 4639 and IRadAn=       5 diagonalized for initial guess.
 HarFok:  IExCor= 4639 AccDes= 0.00D+00 IRadAn=         5 IDoV= 1 UseB2=F ITyADJ=14
 ICtDFT=  3500011 ScaDFX=  1.000000  1.000000  1.000000  1.000000
 FoFCou: FMM=F IPFlag=           0 FMFlag=      100000 FMFlg1=        2001
         NFxFlg=           0 DoJE=T BraDBF=F KetDBF=T FulRan=T
         wScrn=  0.000000 ICntrl=       500 IOpCl=  0 I1Cent=   200000004 NGrid=           0
         NMat0=    1 NMatS0=      1 NMatT0=    0 NMatD0=    1 NMtDS0=    0 NMtDT0=    0
 Petite list used in FoFCou.
 Requested convergence on RMS density matrix=1.00D-08 within 128 cycles.
 Requested convergence on MAX density matrix=1.00D-06.
 Requested convergence on             energy=1.00D-06.
 No special actions if energy rises.
 Integral accuracy reduced to 1.0D-05 until final iterations.
 Initial convergence to 1.0D-05 achieved.  Increase integral accuracy.
 SCF Done:  E(RwB97XD) =  -2529.39147412     A.U. after   16 cycles
            NFock= 16  Conv=0.39D-08     -V/T= 2.0043
 Hyperfine terms turned off by default for NAtoms > 100.

 **********************************************************************

            Population analysis using the SCF Density.

 **********************************************************************

 Orbital symmetries:
       Occupied  (A) (A) (A) (A) (A) (A) (A) (A) (A) (A) (A) (A)
                 (A) (A) (A) (A) (A) (A) (A) (A) (A) (A) (A) (A)
                 (A) (A) (A) (A) (A) (A) (A) (A) (A) (A) (A) (A)
                 (A) (A) (A) (A) (A) (A) (A) (A) (A) (A) (A) (A)
                 (A) (A) (A) (A) (A) (A) (A) (A) (A) (A) (A) (A)
                 (A) (A) (A) (A) (A) (A) (A) (A) (A) (A) (A) (A)
                 (A) (A) (A) (A) (A) (A) (A) (A) (A) (A) (A) (A)
                 (A) (A) (A) (A) (A) (A) (A) (A) (A) (A) (A) (A)
                 (A) (A) (A) (A) (A) (A) (A) (A) (A) (A) (A) (A)
                 (A) (A) (A) (A) (A) (A) (A) (A) (A) (A) (A) (A)
                 (A) (A) (A) (A) (A) (A) (A) (A) (A) (A) (A) (A)
                 (A) (A) (A) (A) (A) (A) (A) (A) (A) (A) (A) (A)
                 (A) (A) (A) (A) (A) (A) (A) (A) (A) (A) (A) (A)
                 (A) (A) (A) (A) (A) (A) (A) (A) (A) (A) (A) (A)
                 (A) (A) (A) (A) (A) (A) (A) (A) (A) (A) (A) (A)
                 (A) (A) (A) (A) (A) (A) (A) (A) (A) (A) (A) (A)
                 (A) (A) (A) (A) (A) (A) (A) (A) (A)
       Virtual   (A) (A) (A) (A) (A) (A) (A) (A) (A) (A) (A) (A)
                 (A) (A) (A) (A) (A) (A) (A) (A) (A) (A) (A) (A)
                 (A) (A) (A) (A) (A) (A) (A) (A) (A) (A) (A) (A)
                 (A) (A) (A) (A) (A) (A) (A) (A) (A) (A) (A) (A)
                 (A) (A) (A) (A) (A) (A) (A) (A) (A) (A) (A) (A)
                 (A) (A) (A) (A) (A) (A) (A) (A) (A) (A) (A) (A)
                 (A) (A) (A) (A) (A) (A) (A) (A) (A) (A) (A) (A)
                 (A) (A) (A) (A) (A) (A) (A) (A) (A) (A) (A) (A)
                 (A) (A) (A) (A) (A) (A) (A) (A) (A) (A) (A) (A)
                 (A) (A) (A) (A) (A) (A) (A) (A) (A) (A) (A) (A)
                 (A) (A) (A) (A) (A) (A) (A) (A) (A) (A) (A) (A)
                 (A) (A) (A) (A) (A) (A) (A) (A) (A) (A) (A) (A)
                 (A) (A) (A) (A) (A) (A) (A) (A) (A) (A) (A) (A)
                 (A) (A) (A) (A) (A) (A) (A) (A) (A) (A) (A) (A)
                 (A) (A) (A) (A) (A) (A) (A) (A) (A) (A) (A) (A)
                 (A) (A) (A) (A) (A) (A) (A) (A) (A) (A) (A) (A)
                 (A) (A) (A) (A) (A) (A) (A) (A) (A) (A) (A) (A)
                 (A) (A) (A) (A) (A) (A) (A) (A) (A) (A) (A) (A)
                 (A) (A) (A) (A) (A) (A) (A) (A) (A) (A) (A) (A)
                 (A) (A) (A) (A) (A) (A) (A) (A) (A) (A) (A) (A)
                 (A) (A) (A) (A) (A) (A) (A) (A) (A) (A) (A) (A)
                 (A) (A) (A) (A) (A) (A) (A) (A) (A) (A) (A) (A)
                 (A) (A) (A) (A) (A) (A) (A) (A) (A) (A) (A) (A)
                 (A) (A) (A) (A) (A) (A) (A) (A) (A) (A) (A) (A)
                 (A) (A) (A) (A) (A) (A) (A) (A) (A) (A) (A) (A)
                 (A) (A) (A) (A) (A) (A) (A) (A) (A) (A) (A) (A)
                 (A) (A) (A) (A) (A) (A) (A) (A) (A) (A) (A) (A)
                 (A) (A) (A) (A) (A) (A) (A) (A) (A) (A) (A) (A)
                 (A) (A) (A) (A) (A) (A) (A) (A) (A) (A) (A) (A)
                 (A) (A) (A) (A) (A) (A) (A) (A) (A) (A) (A) (A)
                 (A) (A) (A) (A) (A) (A) (A) (A) (A) (A) (A) (A)
                 (A) (A) (A) (A) (A) (A) (A) (A) (A) (A) (A) (A)
                 (A) (A) (A) (A) (A) (A) (A) (A) (A) (A) (A) (A)
                 (A) (A) (A) (A) (A) (A) (A) (A) (A) (A) (A) (A)
                 (A) (A) (A) (A) (A) (A) (A) (A) (A) (A) (A) (A)
                 (A) (A) (A) (A) (A) (A) (A) (A) (A) (A) (A) (A)
                 (A) (A) (A) (A) (A) (A) (A) (A) (A) (A) (A) (A)
                 (A) (A) (A) (A) (A) (A) (A) (A) (A) (A) (A) (A)
                 (A) (A) (A) (A) (A) (A) (A) (A) (A) (A) (A) (A)
                 (A) (A) (A) (A) (A) (A) (A) (A) (A) (A) (A) (A)
                 (A) (A) (A) (A) (A) (A) (A) (A) (A) (A) (A) (A)
                 (A) (A) (A) (A) (A) (A) (A) (A) (A) (A) (A) (A)
                 (A) (A) (A) (A) (A) (A) (A) (A) (A) (A) (A) (A)
                 (A) (A) (A) (A) (A) (A) (A) (A) (A) (A) (A) (A)
                 (A) (A) (A) (A) (A) (A) (A) (A) (A) (A) (A) (A)
                 (A) (A) (A) (A) (A) (A) (A) (A) (A) (A) (A) (A)
                 (A) (A) (A) (A) (A) (A) (A) (A) (A) (A) (A) (A)
                 (A) (A) (A) (A) (A) (A) (A) (A) (A) (A) (A) (A)
                 (A) (A) (A) (A) (A) (A) (A) (A) (A) (A) (A) (A)
                 (A) (A) (A) (A) (A) (A) (A) (A) (A) (A) (A) (A)
                 (A) (A) (A) (A) (A) (A) (A) (A) (A) (A) (A) (A)
                 (A) (A) (A) (A) (A) (A) (A) (A) (A) (A) (A) (A)
                 (A) (A) (A) (A) (A) (A) (A) (A) (A) (A) (A) (A)
                 (A) (A) (A) (A) (A) (A) (A) (A) (A) (A) (A) (A)
                 (A) (A) (A) (A) (A) (A) (A) (A) (A) (A) (A) (A)
                 (A) (A) (A) (A) (A) (A) (A) (A) (A) (A) (A) (A)
                 (A) (A) (A) (A) (A) (A) (A) (A) (A) (A) (A) (A)
                 (A) (A) (A) (A) (A) (A) (A) (A) (A) (A) (A) (A)
                 (A) (A) (A) (A) (A) (A) (A) (A) (A) (A) (A) (A)
                 (A) (A) (A) (A) (A) (A) (A) (A) (A) (A) (A) (A)
                 (A) (A) (A) (A) (A) (A) (A) (A) (A) (A) (A) (A)
                 (A) (A) (A) (A) (A) (A) (A) (A) (A) (A) (A) (A)
                 (A) (A) (A) (A) (A) (A) (A) (A) (A) (A) (A) (A)
                 (A) (A) (A) (A) (A) (A) (A) (A) (A) (A) (A) (A)
                 (A) (A) (A) (A) (A) (A) (A) (A) (A) (A) (A) (A)
                 (A) (A) (A) (A) (A) (A) (A) (A) (A) (A) (A) (A)
                 (A) (A) (A) (A) (A) (A) (A) (A) (A) (A) (A) (A)
                 (A) (A) (A) (A) (A) (A) (A) (A) (A) (A) (A) (A)
                 (A) (A) (A) (A) (A) (A) (A) (A) (A) (A) (A) (A)
                 (A) (A) (A) (A) (A) (A) (A) (A) (A) (A) (A) (A)
                 (A) (A) (A) (A) (A) (A) (A) (A) (A) (A) (A) (A)
                 (A) (A) (A) (A) (A) (A) (A) (A) (A) (A) (A) (A)
                 (A) (A) (A) (A) (A) (A) (A) (A) (A) (A) (A) (A)
                 (A) (A) (A) (A) (A) (A) (A) (A) (A) (A) (A) (A)
                 (A) (A) (A) (A) (A) (A) (A) (A) (A) (A) (A) (A)
                 (A) (A) (A) (A) (A) (A) (A) (A) (A) (A) (A) (A)
                 (A) (A) (A) (A) (A) (A) (A) (A) (A) (A) (A) (A)
                 (A) (A) (A) (A) (A) (A) (A) (A) (A) (A) (A) (A)
                 (A) (A) (A) (A) (A) (A) (A) (A) (A) (A) (A) (A)
                 (A) (A) (A) (A) (A) (A) (A) (A) (A) (A) (A) (A)
                 (A) (A) (A) (A) (A) (A) (A) (A) (A) (A) (A) (A)
                 (A) (A) (A) (A) (A) (A) (A) (A) (A) (A) (A) (A)
                 (A) (A) (A) (A) (A) (A) (A) (A) (A) (A) (A) (A)
                 (A) (A) (A) (A) (A) (A) (A) (A) (A) (A) (A) (A)
                 (A) (A) (A) (A) (A) (A) (A) (A) (A) (A) (A) (A)
                 (A) (A) (A) (A) (A) (A) (A) (A) (A) (A) (A) (A)
                 (A) (A) (A) (A) (A) (A) (A) (A) (A) (A) (A) (A)
                 (A) (A) (A) (A) (A) (A) (A) (A) (A) (A) (A) (A)
                 (A) (A) (A) (A) (A) (A) (A) (A) (A) (A) (A) (A)
                 (A) (A) (A) (A) (A) (A) (A) (A) (A) (A) (A) (A)
                 (A) (A) (A) (A) (A) (A) (A) (A) (A) (A) (A) (A)
                 (A) (A) (A) (A) (A) (A) (A) (A) (A) (A) (A) (A)
                 (A) (A) (A) (A) (A) (A) (A) (A) (A) (A) (A) (A)
                 (A) (A) (A) (A) (A) (A) (A) (A) (A) (A) (A) (A)
                 (A) (A) (A) (A) (A) (A) (A) (A) (A) (A) (A)
 The electronic state is 1-A.
 Alpha  occ. eigenvalues --  -66.36571 -19.35728 -19.31871 -19.30539 -14.70523
 Alpha  occ. eigenvalues --  -14.69648 -14.57797 -10.50591 -10.46072 -10.44363
 Alpha  occ. eigenvalues --  -10.43128 -10.43032 -10.42099 -10.40827 -10.39849
 Alpha  occ. eigenvalues --  -10.39499 -10.38894 -10.38721 -10.38476 -10.38334
 Alpha  occ. eigenvalues --  -10.38332 -10.38294 -10.38265 -10.38250 -10.38195
 Alpha  occ. eigenvalues --  -10.38167 -10.38144 -10.38087 -10.38070 -10.38061
 Alpha  occ. eigenvalues --  -10.37506 -10.37108 -10.37019 -10.36830 -10.36789
 Alpha  occ. eigenvalues --  -10.36716 -10.36685 -10.36683 -10.36587 -10.36385
 Alpha  occ. eigenvalues --  -10.36297 -10.36252 -10.36216 -10.36073 -10.35942
 Alpha  occ. eigenvalues --  -10.35899 -10.35608 -10.35569 -10.34954 -10.34605
 Alpha  occ. eigenvalues --  -10.34570 -10.34491 -10.34043 -10.34042  -6.95863
 Alpha  occ. eigenvalues --   -5.49945  -3.84543  -3.84260  -3.84234  -1.38079
 Alpha  occ. eigenvalues --   -1.24740  -1.22609  -1.19698  -1.14286  -1.05827
 Alpha  occ. eigenvalues --   -1.05031  -1.04958  -1.03395  -1.03241  -1.03046
 Alpha  occ. eigenvalues --   -0.98325  -0.97690  -0.96542  -0.96353  -0.95996
 Alpha  occ. eigenvalues --   -0.94617  -0.94405  -0.94087  -0.94049  -0.93380
 Alpha  occ. eigenvalues --   -0.92874  -0.92517  -0.90956  -0.90934  -0.89484
 Alpha  occ. eigenvalues --   -0.88302  -0.87319  -0.87251  -0.86244  -0.86105
 Alpha  occ. eigenvalues --   -0.85680  -0.84520  -0.84318  -0.80943  -0.80158
 Alpha  occ. eigenvalues --   -0.79638  -0.79321  -0.79167  -0.78686  -0.78236
 Alpha  occ. eigenvalues --   -0.78198  -0.76787  -0.75535  -0.74940  -0.74592
 Alpha  occ. eigenvalues --   -0.73636  -0.72916  -0.72231  -0.71919  -0.71566
 Alpha  occ. eigenvalues --   -0.71432  -0.71203  -0.70557  -0.70519  -0.68782
 Alpha  occ. eigenvalues --   -0.67786  -0.67355  -0.66479  -0.66416  -0.65694
 Alpha  occ. eigenvalues --   -0.65307  -0.65032  -0.64496  -0.64171  -0.63870
 Alpha  occ. eigenvalues --   -0.63511  -0.63359  -0.63170  -0.62685  -0.62148
 Alpha  occ. eigenvalues --   -0.62012  -0.61716  -0.61232  -0.61067  -0.60779
 Alpha  occ. eigenvalues --   -0.60663  -0.60506  -0.60259  -0.59964  -0.59332
 Alpha  occ. eigenvalues --   -0.59179  -0.59076  -0.58984  -0.58647  -0.58236
 Alpha  occ. eigenvalues --   -0.57829  -0.57691  -0.57462  -0.57256  -0.57121
 Alpha  occ. eigenvalues --   -0.56847  -0.56652  -0.56193  -0.56092  -0.56082
 Alpha  occ. eigenvalues --   -0.55979  -0.55917  -0.55733  -0.55399  -0.55322
 Alpha  occ. eigenvalues --   -0.55244  -0.54588  -0.54398  -0.54303  -0.53886
 Alpha  occ. eigenvalues --   -0.53551  -0.52933  -0.52788  -0.52605  -0.52140
 Alpha  occ. eigenvalues --   -0.52048  -0.51966  -0.51933  -0.51743  -0.51333
 Alpha  occ. eigenvalues --   -0.51007  -0.50824  -0.50716  -0.50108  -0.50097
 Alpha  occ. eigenvalues --   -0.49854  -0.49554  -0.49024  -0.48738  -0.48511
 Alpha  occ. eigenvalues --   -0.48292  -0.48215  -0.46891  -0.46166  -0.45110
 Alpha  occ. eigenvalues --   -0.43378  -0.43329  -0.42489  -0.41976  -0.41561
 Alpha  occ. eigenvalues --   -0.40819  -0.40338  -0.39868  -0.38142  -0.37899
 Alpha  occ. eigenvalues --   -0.37870
 Alpha virt. eigenvalues --   -0.12158  -0.10180  -0.07177  -0.05513  -0.04457
 Alpha virt. eigenvalues --   -0.03512  -0.03164  -0.03014  -0.02711  -0.02575
 Alpha virt. eigenvalues --   -0.01220  -0.01120  -0.00280   0.00547   0.01222
 Alpha virt. eigenvalues --    0.02717   0.02901   0.03473   0.03996   0.04459
 Alpha virt. eigenvalues --    0.04681   0.05256   0.05542   0.05808   0.06102
 Alpha virt. eigenvalues --    0.06462   0.06539   0.06947   0.07325   0.07583
 Alpha virt. eigenvalues --    0.07781   0.07894   0.08155   0.08475   0.08590
 Alpha virt. eigenvalues --    0.08879   0.09043   0.09209   0.09299   0.09563
 Alpha virt. eigenvalues --    0.09882   0.10147   0.10462   0.10640   0.10843
 Alpha virt. eigenvalues --    0.11023   0.11133   0.11256   0.11451   0.11599
 Alpha virt. eigenvalues --    0.11784   0.12045   0.12182   0.12265   0.12731
 Alpha virt. eigenvalues --    0.12999   0.13110   0.13207   0.13285   0.13470
 Alpha virt. eigenvalues --    0.13813   0.14056   0.14199   0.14316   0.14767
 Alpha virt. eigenvalues --    0.14888   0.15126   0.15209   0.15427   0.15839
 Alpha virt. eigenvalues --    0.15938   0.16116   0.16284   0.16458   0.16631
 Alpha virt. eigenvalues --    0.16663   0.16944   0.17679   0.18035   0.18312
 Alpha virt. eigenvalues --    0.18700   0.18921   0.18928   0.19512   0.19872
 Alpha virt. eigenvalues --    0.20296   0.20729   0.20914   0.21192   0.21445
 Alpha virt. eigenvalues --    0.21734   0.21857   0.22452   0.22590   0.23126
 Alpha virt. eigenvalues --    0.23362   0.23461   0.23933   0.24296   0.24442
 Alpha virt. eigenvalues --    0.24803   0.25140   0.25552   0.25662   0.25992
 Alpha virt. eigenvalues --    0.26197   0.26363   0.26741   0.26941   0.27386
 Alpha virt. eigenvalues --    0.27511   0.27644   0.27931   0.28116   0.28332
 Alpha virt. eigenvalues --    0.28743   0.28795   0.29052   0.29300   0.29409
 Alpha virt. eigenvalues --    0.29577   0.30148   0.30491   0.30764   0.31058
 Alpha virt. eigenvalues --    0.31445   0.31947   0.31974   0.32413   0.32535
 Alpha virt. eigenvalues --    0.32874   0.33168   0.33418   0.33491   0.33992
 Alpha virt. eigenvalues --    0.34313   0.34526   0.34718   0.34940   0.35133
 Alpha virt. eigenvalues --    0.35252   0.35316   0.35714   0.36108   0.36319
 Alpha virt. eigenvalues --    0.36357   0.36602   0.37241   0.37494   0.37796
 Alpha virt. eigenvalues --    0.38150   0.38327   0.38599   0.38817   0.39011
 Alpha virt. eigenvalues --    0.39500   0.39678   0.39878   0.40003   0.40278
 Alpha virt. eigenvalues --    0.40433   0.40880   0.41359   0.41583   0.41709
 Alpha virt. eigenvalues --    0.41874   0.42122   0.42290   0.42808   0.42882
 Alpha virt. eigenvalues --    0.42955   0.43266   0.43814   0.43940   0.44148
 Alpha virt. eigenvalues --    0.44342   0.44617   0.44758   0.45213   0.45315
 Alpha virt. eigenvalues --    0.45669   0.45870   0.46072   0.46403   0.46525
 Alpha virt. eigenvalues --    0.46861   0.46965   0.47427   0.47686   0.47816
 Alpha virt. eigenvalues --    0.48128   0.48371   0.48557   0.48674   0.48834
 Alpha virt. eigenvalues --    0.49143   0.49661   0.49736   0.50107   0.50279
 Alpha virt. eigenvalues --    0.50599   0.50725   0.50967   0.51060   0.51511
 Alpha virt. eigenvalues --    0.51894   0.52129   0.52241   0.52379   0.52531
 Alpha virt. eigenvalues --    0.53577   0.53609   0.53782   0.54104   0.54516
 Alpha virt. eigenvalues --    0.54638   0.54943   0.55286   0.55514   0.55544
 Alpha virt. eigenvalues --    0.55639   0.56020   0.56472   0.56544   0.56879
 Alpha virt. eigenvalues --    0.57024   0.57236   0.57288   0.57526   0.57734
 Alpha virt. eigenvalues --    0.57886   0.57943   0.58197   0.58511   0.58702
 Alpha virt. eigenvalues --    0.58778   0.59023   0.59047   0.59155   0.59343
 Alpha virt. eigenvalues --    0.59548   0.59778   0.59990   0.60059   0.60179
 Alpha virt. eigenvalues --    0.60377   0.60694   0.60879   0.60916   0.61113
 Alpha virt. eigenvalues --    0.61242   0.61375   0.61450   0.61820   0.62040
 Alpha virt. eigenvalues --    0.62195   0.62243   0.62592   0.62898   0.62982
 Alpha virt. eigenvalues --    0.63100   0.63259   0.63488   0.63687   0.63916
 Alpha virt. eigenvalues --    0.64032   0.64245   0.64578   0.64597   0.64789
 Alpha virt. eigenvalues --    0.65280   0.65559   0.65840   0.65948   0.66251
 Alpha virt. eigenvalues --    0.66579   0.66675   0.66924   0.67226   0.67320
 Alpha virt. eigenvalues --    0.67580   0.67672   0.67880   0.67988   0.68701
 Alpha virt. eigenvalues --    0.68751   0.69065   0.69362   0.69606   0.69691
 Alpha virt. eigenvalues --    0.69946   0.70317   0.70770   0.70837   0.71247
 Alpha virt. eigenvalues --    0.71418   0.71640   0.71866   0.72272   0.72443
 Alpha virt. eigenvalues --    0.72505   0.72825   0.73020   0.73109   0.73512
 Alpha virt. eigenvalues --    0.74069   0.74360   0.74667   0.74847   0.75004
 Alpha virt. eigenvalues --    0.75217   0.75643   0.75767   0.76133   0.76335
 Alpha virt. eigenvalues --    0.77078   0.77866   0.78115   0.78392   0.78803
 Alpha virt. eigenvalues --    0.78912   0.79423   0.79899   0.79966   0.80231
 Alpha virt. eigenvalues --    0.80718   0.80911   0.81018   0.81209   0.81921
 Alpha virt. eigenvalues --    0.82391   0.82814   0.82962   0.83580   0.83858
 Alpha virt. eigenvalues --    0.83941   0.84542   0.84811   0.85044   0.85662
 Alpha virt. eigenvalues --    0.86050   0.86188   0.86377   0.86696   0.86887
 Alpha virt. eigenvalues --    0.87604   0.87973   0.88304   0.88456   0.88609
 Alpha virt. eigenvalues --    0.88939   0.90022   0.90049   0.90398   0.90680
 Alpha virt. eigenvalues --    0.91204   0.91284   0.92205   0.92412   0.93241
 Alpha virt. eigenvalues --    0.93572   0.93738   0.94071   0.94318   0.94476
 Alpha virt. eigenvalues --    0.94995   0.95804   0.95915   0.97045   0.97435
 Alpha virt. eigenvalues --    0.97553   0.98154   0.98786   0.99032   0.99243
 Alpha virt. eigenvalues --    0.99374   0.99889   1.00113   1.00628   1.00987
 Alpha virt. eigenvalues --    1.01046   1.01487   1.01964   1.02406   1.02819
 Alpha virt. eigenvalues --    1.03118   1.03321   1.03563   1.04095   1.04167
 Alpha virt. eigenvalues --    1.04761   1.05227   1.05942   1.06439   1.06604
 Alpha virt. eigenvalues --    1.06807   1.06936   1.07876   1.08099   1.08305
 Alpha virt. eigenvalues --    1.08609   1.08974   1.09195   1.09599   1.09885
 Alpha virt. eigenvalues --    1.10429   1.10545   1.10883   1.11274   1.11746
 Alpha virt. eigenvalues --    1.12129   1.12395   1.12666   1.13297   1.14091
 Alpha virt. eigenvalues --    1.14475   1.14790   1.15170   1.15296   1.16094
 Alpha virt. eigenvalues --    1.16418   1.16883   1.17390   1.18009   1.18134
 Alpha virt. eigenvalues --    1.18562   1.19309   1.19665   1.20658   1.21270
 Alpha virt. eigenvalues --    1.21755   1.21793   1.22578   1.23667   1.24259
 Alpha virt. eigenvalues --    1.24835   1.25702   1.25943   1.26678   1.26811
 Alpha virt. eigenvalues --    1.27787   1.27983   1.28428   1.29155   1.30018
 Alpha virt. eigenvalues --    1.30896   1.31087   1.31412   1.31867   1.32252
 Alpha virt. eigenvalues --    1.32510   1.33620   1.33740   1.34298   1.35039
 Alpha virt. eigenvalues --    1.35575   1.36543   1.37044   1.37174   1.37346
 Alpha virt. eigenvalues --    1.37664   1.38111   1.39101   1.39238   1.39517
 Alpha virt. eigenvalues --    1.39717   1.40395   1.40640   1.40983   1.41688
 Alpha virt. eigenvalues --    1.42001   1.42466   1.43109   1.43490   1.43683
 Alpha virt. eigenvalues --    1.44098   1.44612   1.44943   1.45332   1.45422
 Alpha virt. eigenvalues --    1.45603   1.45884   1.46257   1.46617   1.46732
 Alpha virt. eigenvalues --    1.47024   1.47267   1.47445   1.47780   1.47934
 Alpha virt. eigenvalues --    1.48123   1.48267   1.48397   1.48757   1.49000
 Alpha virt. eigenvalues --    1.49199   1.49538   1.49782   1.49872   1.50023
 Alpha virt. eigenvalues --    1.50294   1.50610   1.50750   1.51101   1.51426
 Alpha virt. eigenvalues --    1.51615   1.51760   1.52028   1.52148   1.52471
 Alpha virt. eigenvalues --    1.52809   1.53072   1.53284   1.53372   1.53491
 Alpha virt. eigenvalues --    1.53896   1.54148   1.54588   1.54826   1.55111
 Alpha virt. eigenvalues --    1.55207   1.55578   1.55722   1.55825   1.56311
 Alpha virt. eigenvalues --    1.56648   1.56730   1.56862   1.57202   1.57281
 Alpha virt. eigenvalues --    1.57543   1.57755   1.58022   1.58365   1.58378
 Alpha virt. eigenvalues --    1.58595   1.58818   1.59388   1.59577   1.59873
 Alpha virt. eigenvalues --    1.60044   1.60302   1.60499   1.60852   1.61013
 Alpha virt. eigenvalues --    1.61192   1.61248   1.61566   1.61871   1.62185
 Alpha virt. eigenvalues --    1.62408   1.62768   1.63005   1.63542   1.63735
 Alpha virt. eigenvalues --    1.64175   1.64274   1.64427   1.65020   1.65354
 Alpha virt. eigenvalues --    1.65711   1.65930   1.66144   1.66366   1.66849
 Alpha virt. eigenvalues --    1.67032   1.67574   1.68157   1.68491   1.68835
 Alpha virt. eigenvalues --    1.69400   1.69694   1.69957   1.70168   1.70504
 Alpha virt. eigenvalues --    1.70587   1.70878   1.71166   1.71227   1.71629
 Alpha virt. eigenvalues --    1.71985   1.72075   1.72342   1.72805   1.73086
 Alpha virt. eigenvalues --    1.73767   1.73778   1.74097   1.74317   1.74544
 Alpha virt. eigenvalues --    1.74801   1.75148   1.75671   1.75856   1.76130
 Alpha virt. eigenvalues --    1.76359   1.76541   1.76714   1.77182   1.77328
 Alpha virt. eigenvalues --    1.77494   1.77959   1.78469   1.79035   1.79132
 Alpha virt. eigenvalues --    1.79375   1.79607   1.79846   1.80248   1.80757
 Alpha virt. eigenvalues --    1.81278   1.82047   1.82067   1.82160   1.82527
 Alpha virt. eigenvalues --    1.82689   1.83036   1.83289   1.83591   1.83814
 Alpha virt. eigenvalues --    1.84262   1.84853   1.84961   1.85588   1.85843
 Alpha virt. eigenvalues --    1.86293   1.86915   1.87475   1.88275   1.88800
 Alpha virt. eigenvalues --    1.89155   1.89690   1.90154   1.90239   1.90475
 Alpha virt. eigenvalues --    1.90839   1.91014   1.91104   1.91352   1.91535
 Alpha virt. eigenvalues --    1.91837   1.92272   1.92476   1.92725   1.93148
 Alpha virt. eigenvalues --    1.93398   1.93817   1.93962   1.94285   1.94483
 Alpha virt. eigenvalues --    1.94799   1.95270   1.95304   1.96111   1.96534
 Alpha virt. eigenvalues --    1.96945   1.97180   1.97544   1.97866   1.97934
 Alpha virt. eigenvalues --    1.98282   1.98340   1.99046   1.99408   1.99741
 Alpha virt. eigenvalues --    2.00487   2.00796   2.01002   2.01516   2.01837
 Alpha virt. eigenvalues --    2.01981   2.02213   2.02703   2.02929   2.03411
 Alpha virt. eigenvalues --    2.03544   2.04121   2.04457   2.04598   2.04674
 Alpha virt. eigenvalues --    2.05441   2.05604   2.05926   2.06229   2.06478
 Alpha virt. eigenvalues --    2.07054   2.07563   2.07686   2.07844   2.08141
 Alpha virt. eigenvalues --    2.08448   2.08824   2.09283   2.09619   2.10747
 Alpha virt. eigenvalues --    2.11060   2.11536   2.11828   2.12632   2.12976
 Alpha virt. eigenvalues --    2.13558   2.14094   2.14304   2.14466   2.14797
 Alpha virt. eigenvalues --    2.15138   2.15802   2.16495   2.16846   2.16907
 Alpha virt. eigenvalues --    2.17721   2.18056   2.18413   2.18795   2.19435
 Alpha virt. eigenvalues --    2.20282   2.20815   2.21434   2.21644   2.22508
 Alpha virt. eigenvalues --    2.22616   2.23174   2.23932   2.24431   2.24662
 Alpha virt. eigenvalues --    2.25071   2.25742   2.26004   2.26264   2.27153
 Alpha virt. eigenvalues --    2.27742   2.28002   2.28278   2.28496   2.29694
 Alpha virt. eigenvalues --    2.30403   2.30964   2.31137   2.31534   2.31945
 Alpha virt. eigenvalues --    2.32103   2.32547   2.32826   2.33047   2.33305
 Alpha virt. eigenvalues --    2.33707   2.33837   2.34300   2.34664   2.34927
 Alpha virt. eigenvalues --    2.35212   2.36008   2.36608   2.36748   2.36961
 Alpha virt. eigenvalues --    2.37231   2.37758   2.38132   2.38194   2.38365
 Alpha virt. eigenvalues --    2.38673   2.39131   2.39283   2.39331   2.39782
 Alpha virt. eigenvalues --    2.40380   2.40859   2.40995   2.41277   2.41549
 Alpha virt. eigenvalues --    2.42472   2.42637   2.43257   2.44279   2.44887
 Alpha virt. eigenvalues --    2.45262   2.45926   2.46559   2.46883   2.47398
 Alpha virt. eigenvalues --    2.47949   2.48324   2.48834   2.48907   2.49178
 Alpha virt. eigenvalues --    2.49793   2.50180   2.50565   2.50767   2.51581
 Alpha virt. eigenvalues --    2.52001   2.52214   2.52469   2.52959   2.53574
 Alpha virt. eigenvalues --    2.54328   2.54468   2.54682   2.54885   2.55322
 Alpha virt. eigenvalues --    2.55779   2.55913   2.56032   2.56161   2.56651
 Alpha virt. eigenvalues --    2.56898   2.57080   2.57522   2.57857   2.58477
 Alpha virt. eigenvalues --    2.58984   2.59210   2.59328   2.59842   2.60086
 Alpha virt. eigenvalues --    2.60459   2.60759   2.61029   2.61458   2.61581
 Alpha virt. eigenvalues --    2.61906   2.62210   2.62590   2.62666   2.62921
 Alpha virt. eigenvalues --    2.63357   2.63829   2.64000   2.64254   2.64580
 Alpha virt. eigenvalues --    2.64757   2.65126   2.65797   2.65914   2.66161
 Alpha virt. eigenvalues --    2.66377   2.66816   2.67302   2.67574   2.67922
 Alpha virt. eigenvalues --    2.68365   2.68595   2.68773   2.69350   2.69528
 Alpha virt. eigenvalues --    2.69981   2.70416   2.70993   2.71254   2.71738
 Alpha virt. eigenvalues --    2.72148   2.72360   2.73013   2.73215   2.73601
 Alpha virt. eigenvalues --    2.74132   2.74380   2.75060   2.75804   2.75945
 Alpha virt. eigenvalues --    2.76566   2.76921   2.77393   2.77972   2.78143
 Alpha virt. eigenvalues --    2.78333   2.79238   2.79421   2.80108   2.80238
 Alpha virt. eigenvalues --    2.80748   2.80905   2.81042   2.81314   2.81641
 Alpha virt. eigenvalues --    2.82005   2.82451   2.83054   2.83260   2.83784
 Alpha virt. eigenvalues --    2.83898   2.84398   2.84644   2.84981   2.85108
 Alpha virt. eigenvalues --    2.85249   2.85819   2.86333   2.86839   2.87001
 Alpha virt. eigenvalues --    2.87263   2.87881   2.88339   2.88525   2.89102
 Alpha virt. eigenvalues --    2.89421   2.89572   2.89985   2.90196   2.90990
 Alpha virt. eigenvalues --    2.91202   2.91485   2.91675   2.92053   2.92882
 Alpha virt. eigenvalues --    2.93466   2.93668   2.94531   2.94968   2.95469
 Alpha virt. eigenvalues --    2.95894   2.96168   2.96811   2.97189   2.98134
 Alpha virt. eigenvalues --    2.98690   2.99425   3.00084   3.00972   3.02103
 Alpha virt. eigenvalues --    3.02748   3.03182   3.04111   3.04995   3.05574
 Alpha virt. eigenvalues --    3.06373   3.07036   3.08135   3.09343   3.10555
 Alpha virt. eigenvalues --    3.11538   3.11595   3.11985   3.12846   3.13450
 Alpha virt. eigenvalues --    3.14432   3.15151   3.16361   3.17032   3.17260
 Alpha virt. eigenvalues --    3.17826   3.18310   3.19381   3.19595   3.20391
 Alpha virt. eigenvalues --    3.21007   3.21903   3.22830   3.23546   3.23876
 Alpha virt. eigenvalues --    3.24730   3.25257   3.26177   3.26436   3.27145
 Alpha virt. eigenvalues --    3.27585   3.29538   3.30866   3.32198   3.33608
 Alpha virt. eigenvalues --    3.33862   3.35251   3.35530   3.36962   3.37747
 Alpha virt. eigenvalues --    3.38127   3.38859   3.39193   3.40072   3.40682
 Alpha virt. eigenvalues --    3.42004   3.43038   3.44159   3.44728   3.45092
 Alpha virt. eigenvalues --    3.46670   3.47723   3.48530   3.49798   3.50862
 Alpha virt. eigenvalues --    3.52647   3.52706   3.54698   3.55257   3.55654
 Alpha virt. eigenvalues --    3.57777   3.57851   3.60030   3.61074   3.62406
 Alpha virt. eigenvalues --    3.63430   3.63745   3.64962   3.65360   3.66483
 Alpha virt. eigenvalues --    3.67602   3.69630   3.70212   3.71358   3.73014
 Alpha virt. eigenvalues --    3.73353   3.74505   3.75060   3.75394   3.76474
 Alpha virt. eigenvalues --    3.78776   3.78887   3.79402   3.80512   3.80764
 Alpha virt. eigenvalues --    3.81088   3.81790   3.81975   3.81993   3.82565
 Alpha virt. eigenvalues --    3.82886   3.83695   3.83915   3.84078   3.84592
 Alpha virt. eigenvalues --    3.85087   3.85377   3.85834   3.86611   3.89221
 Alpha virt. eigenvalues --    3.96334   3.98439   3.98845   3.99982   4.00411
 Alpha virt. eigenvalues --    4.02292   4.02701   4.03027   4.04371   4.05084
 Alpha virt. eigenvalues --    4.05619   4.09195   4.12380   4.13572   4.13793
 Alpha virt. eigenvalues --    4.14457   4.14875   4.15577   4.16210   4.16756
 Alpha virt. eigenvalues --    4.17053   4.17778   4.19265   4.20941   4.23802
 Alpha virt. eigenvalues --    4.25721   4.30486   4.32527   4.34300   4.34769
 Alpha virt. eigenvalues --    4.35835   4.36193   4.36647   4.37498   4.39332
 Alpha virt. eigenvalues --    4.40073   4.42786   4.55037   4.62540   4.80720
 Alpha virt. eigenvalues --    4.81751   4.84013   4.84694   4.85871   4.86621
 Alpha virt. eigenvalues --    4.89578   5.12108   5.23477   5.29596   5.32958
 Alpha virt. eigenvalues --    5.42125   5.52001   5.71725   5.79689   5.82455
 Alpha virt. eigenvalues --    5.84636  11.49280  11.58755  11.62820  14.72803
 Alpha virt. eigenvalues --   23.57591  23.58443  23.60764  23.63115  23.63653
 Alpha virt. eigenvalues --   23.73464  23.81126  23.82850  23.86059  23.87519
 Alpha virt. eigenvalues --   23.91178  23.92668  23.93695  23.94178  23.94958
 Alpha virt. eigenvalues --   23.95291  23.95318  23.95818  23.96434  23.96496
 Alpha virt. eigenvalues --   23.97138  23.97762  23.97815  23.98364  23.98817
 Alpha virt. eigenvalues --   23.98956  23.99722  24.00071  24.00865  24.01527
 Alpha virt. eigenvalues --   24.02774  24.03510  24.08797  24.11408  24.11578
 Alpha virt. eigenvalues --   24.12506  24.12905  24.13029  24.13462  24.13916
 Alpha virt. eigenvalues --   24.14824  24.15293  24.21541  24.22076  24.22443
 Alpha virt. eigenvalues --   24.22843  24.23926  35.05304  35.62029  36.21449
 Alpha virt. eigenvalues --   50.03749  50.06483  50.15967 141.32553
          Condensed to atoms (all electrons):
 Mulliken charges:
               1
     1  C   -0.164618
     2  N   -0.402120
     3  B    0.756661
     4  C   -0.355738
     5  C    0.206226
     6  O   -0.416188
     7  C   -0.062087
     8  C   -0.299710
     9  C   -0.300451
    10  C   -0.142121
    11  C   -0.116243
    12  C   -0.118623
    13  C   -0.131360
    14  O   -0.436028
    15  C    0.083677
    16  C   -0.333601
    17  C   -0.278160
    18  N    0.101403
    19  N    0.086737
    20  Si   1.129733
    21  C   -0.655401
    22  C   -0.672080
    23  C   -0.369708
    24  C   -0.095227
    25  C   -0.097693
    26  C   -0.101697
    27  C   -0.091404
    28  C   -0.105031
    29  C   -0.061939
    30  C   -0.125217
    31  C   -0.097707
    32  C   -0.107670
    33  C   -0.108193
    34  C   -0.127238
    35  O   -0.424804
    36  C    0.124249
    37  C   -0.068432
    38  C   -0.102631
    39  C   -0.092500
    40  C   -0.286117
    41  C   -0.074364
    42  C   -0.100802
    43  C   -0.284505
    44  C   -0.084102
    45  C   -0.046766
    46  C   -0.072524
    47  C   -0.110705
    48  C   -0.280968
    49  C   -0.109813
    50  C   -0.105758
    51  C   -0.284393
    52  C   -0.123782
    53  C   -0.109090
    54  C   -0.278110
    55  C   -0.185989
    56  H    0.172091
    57  H    0.279529
    58  H    0.133193
    59  H    0.133013
    60  H    0.154889
    61  H    0.106933
    62  H    0.137919
    63  H    0.119419
    64  H    0.137156
    65  H    0.129710
    66  H    0.125677
    67  H    0.117685
    68  H    0.131780
    69  H    0.179841
    70  H    0.168277
    71  H    0.187219
    72  H    0.172648
    73  H    0.173774
    74  H    0.161399
    75  H    0.148549
    76  H    0.183803
    77  H    0.165455
    78  H    0.144857
    79  H    0.122184
    80  H    0.129036
    81  H    0.131783
    82  H    0.126261
    83  H    0.120806
    84  H    0.122644
    85  H    0.125715
    86  H    0.130774
    87  H    0.125078
    88  H    0.143660
    89  H    0.124377
    90  H    0.135590
    91  H    0.140635
    92  H    0.125443
    93  H    0.103361
    94  H    0.147434
    95  H    0.136460
    96  H    0.119487
    97  H    0.114294
    98  H    0.130344
    99  H    0.119366
   100  H    0.124178
   101  H    0.161579
   102  H    0.105123
   103  H    0.132083
   104  H    0.134952
   105  H    0.140797
   106  H    0.103276
   107  H    0.161276
   108  H    0.174497
   109  H    0.175998
   110  H    0.149847
   111  H    0.166595
   112  H    0.140977
 Sum of Mulliken charges =   1.00000
 Mulliken charges with hydrogens summed into heavy atoms:
               1
     1  C    0.007473
     2  N   -0.122590
     3  B    0.756661
     4  C   -0.355738
     5  C    0.206226
     6  O   -0.416188
     7  C    0.071106
     8  C    0.095126
     9  C    0.094043
    10  C   -0.012411
    11  C    0.009434
    12  C   -0.000939
    13  C    0.000419
    14  O   -0.436028
    15  C    0.263518
    16  C   -0.333601
    17  C    0.249984
    18  N    0.101403
    19  N    0.086737
    20  Si   1.129733
    21  C   -0.171678
    22  C   -0.177965
    23  C   -0.369708
    24  C    0.026957
    25  C    0.031344
    26  C    0.030085
    27  C    0.034857
    28  C    0.015775
    29  C   -0.061939
    30  C   -0.002573
    31  C    0.028008
    32  C    0.023104
    33  C    0.016885
    34  C    0.016422
    35  O   -0.424804
    36  C    0.124249
    37  C   -0.068432
    38  C    0.021746
    39  C   -0.092500
    40  C    0.115551
    41  C    0.028997
    42  C   -0.100802
    43  C    0.118875
    44  C    0.030192
    45  C   -0.046766
    46  C    0.057819
    47  C   -0.110705
    48  C    0.124156
    49  C   -0.004690
    50  C   -0.105758
    51  C    0.123439
    52  C   -0.020506
    53  C    0.226683
    54  C    0.047735
    55  C    0.121582
 Electronic spatial extent (au):  <R**2>=          32503.0232
 Charge=              1.0000 electrons
 Dipole moment (field-independent basis, Debye):
    X=             -4.7879    Y=              1.8021    Z=              2.2456  Tot=              5.5870
 Quadrupole moment (field-independent basis, Debye-Ang):
   XX=           -248.5451   YY=           -273.4552   ZZ=           -295.3625
   XY=             -0.5973   XZ=              3.3465   YZ=             -3.7886
 Traceless Quadrupole moment (field-independent basis, Debye-Ang):
   XX=             23.9091   YY=             -1.0009   ZZ=            -22.9082
   XY=             -0.5973   XZ=              3.3465   YZ=             -3.7886
 Octapole moment (field-independent basis, Debye-Ang**2):
  XXX=            -65.8094  YYY=             36.8201  ZZZ=             50.7797  XYY=            -37.4852
  XXY=            -58.6521  XXZ=             21.8010  XZZ=            -10.9273  YZZ=            -13.5420
  YYZ=             11.9038  XYZ=              7.0758
 Hexadecapole moment (field-independent basis, Debye-Ang**3):
 XXXX=         -21978.4663 YYYY=         -11307.9085 ZZZZ=          -6567.2799 XXXY=            -25.5023
 XXXZ=           -248.9290 YYYX=            218.0079 YYYZ=           -176.8630 ZZZX=           -184.5307
 ZZZY=             90.2910 XXYY=          -5746.9954 XXZZ=          -5128.1851 YYZZ=          -2933.1851
 XXYZ=            182.0547 YYXZ=             59.2154 ZZXY=             73.3874
 N-N= 8.605711743184D+03 E-N=-2.307184580943D+04  KE= 2.518506469754D+03
 1\1\GINC-SWAN-1-2\SP\RwB97XD\6-311G(d,p)\C47H57B1N3O3Si1(1+)\CCL59\03-
 Dec-2022\0\\# wb97xd/6-311g(d,p) int=ultrafine\\ol17ryu_e_int2_SSR_H_2
 _TSe_spe\\1,1\C,0,2.332633,-0.643334,1.556188\N,0,1.312112,-1.680087,1
 .192433\B,0,0.590935,-1.018475,-0.098245\C,0,-0.274859,-2.031606,-0.97
 9915\C,0,-1.242065,-2.863229,-0.37291\O,0,-1.244374,-2.821809,1.003583
 \C,0,-2.131322,-3.645327,1.790485\C,0,-2.104583,-3.037061,3.187466\C,0
 ,-1.667173,-5.101113,1.784441\C,0,-2.133307,-3.621127,-1.140199\C,0,-2
 .046354,-3.575136,-2.535733\C,0,-1.083312,-2.786793,-3.163418\C,0,-0.2
 11639,-2.024603,-2.377768\O,0,-0.220459,0.059665,0.536909\C,0,-1.54146
 2,0.323975,0.211962\C,0,-1.630598,1.530366,-0.734531\C,0,-0.714991,1.4
 37208,-1.926992\N,0,-0.746479,2.769721,0.260857\N,0,-0.376943,3.592354
 ,0.900317\Si,0,-3.366306,2.42419,-1.063578\C,0,-3.083973,3.617365,-2.4
 89059\C,0,-3.926973,3.342219,0.476563\C,0,-4.505171,0.995512,-1.490539
 \C,0,-5.802685,0.970251,-0.944583\C,0,-6.658115,-0.108714,-1.170456\C,
 0,-6.227235,-1.194471,-1.935738\C,0,-4.94565,-1.187711,-2.490765\C,0,-
 4.100138,-0.099387,-2.277528\C,0,-2.406041,0.391694,1.458881\C,0,-1.92
 1121,1.001221,2.622226\C,0,-2.721362,1.080613,3.762125\C,0,-4.011124,0
 .541012,3.753146\C,0,-4.484963,-0.100566,2.607021\C,0,-3.681173,-0.184
 366,1.468635\O,0,1.751696,-0.478346,-0.768234\C,0,2.722441,0.012498,0.
 157007\C,0,4.11726,-0.399353,-0.337877\C,0,4.25391,-1.372301,-1.329988
 \C,0,5.520191,-1.790537,-1.760471\C,0,5.656672,-2.869714,-2.809592\C,0
 ,6.651637,-1.208467,-1.18193\C,0,6.5439,-0.215855,-0.199619\C,0,7.7818
 04,0.431811,0.375469\C,0,5.267984,0.181868,0.209525\C,0,2.638318,1.548
 886,0.201892\C,0,2.50734,2.220297,-1.022735\C,0,2.433549,3.612399,-1.0
 90332\C,0,2.311959,4.317663,-2.421135\C,0,2.505557,4.34481,0.103173\C,
 0,2.666336,3.708889,1.33812\C,0,2.72656,4.50751,2.618688\C,0,2.734841,
 2.306105,1.370179\C,0,2.04556,-2.978168,0.9924\C,0,3.400756,-2.832726,
 1.724021\C,0,3.3807,-1.420924,2.356589\H,0,1.814075,0.10045,2.157932\H
 ,0,0.61296,-1.784318,1.926909\H,0,-3.145847,-3.559165,1.377778\H,0,-2.
 77897,-3.584998,3.853127\H,0,-2.409439,-1.988615,3.162489\H,0,-1.09241
 4,-3.100749,3.605802\H,0,-1.611231,-5.510126,0.772434\H,0,-0.672015,-5
 .176151,2.237914\H,0,-2.355492,-5.720804,2.368694\H,0,-2.886967,-4.244
 922,-0.674547\H,0,-2.733087,-4.175216,-3.127073\H,0,-1.007431,-2.77044
 7,-4.246819\H,0,0.541955,-1.400794,-2.852542\H,0,-1.970761,-0.4526,-0.
 44873\H,0,-0.649251,2.375004,-2.481489\H,0,0.27704,1.078029,-1.656107\
 H,0,-1.165414,0.685028,-2.587579\H,0,-4.010662,4.172902,-2.675265\H,0,
 -2.821547,3.099841,-3.417435\H,0,-2.300242,4.352697,-2.269683\H,0,-4.0
 50267,2.678096,1.336122\H,0,-4.890659,3.825611,0.276484\H,0,-3.226114,
 4.138911,0.748813\H,0,-6.148485,1.787694,-0.317664\H,0,-7.655857,-0.10
 6074,-0.740654\H,0,-6.887701,-2.041198,-2.099946\H,0,-4.595479,-2.0291
 09,-3.080722\H,0,-3.109643,-0.134322,-2.723331\H,0,-0.906041,1.385492,
 2.640349\H,0,-2.337802,1.557103,4.659948\H,0,-4.63417,0.604767,4.6405\
 H,0,-5.475174,-0.546979,2.599234\H,0,-4.046741,-0.700946,0.587418\H,0,
 3.362429,-1.797335,-1.777775\H,0,6.530882,-2.701744,-3.447351\H,0,5.77
 9836,-3.857493,-2.345991\H,0,4.771371,-2.918611,-3.452109\H,0,7.640127
 ,-1.524353,-1.510442\H,0,8.220379,1.142375,-0.336768\H,0,8.553009,-0.3
 12382,0.603539\H,0,7.559559,0.982598,1.295098\H,0,5.1736,0.969471,0.95
 2991\H,0,2.478788,1.632671,-1.935057\H,0,1.887292,3.661029,-3.188015\H
 ,0,1.684212,5.212918,-2.348035\H,0,3.295393,4.643925,-2.782327\H,0,2.4
 5092,5.431163,0.067318\H,0,1.725958,4.628686,3.055672\H,0,3.351634,4.0
 14535,3.370663\H,0,3.129417,5.510691,2.447982\H,0,2.878418,1.824557,2.
 333741\H,0,1.410876,-3.782229,1.367351\H,0,2.175324,-3.11723,-0.080953
 \H,0,4.219182,-2.916463,1.006236\H,0,3.539402,-3.607976,2.482298\H,0,4
 .362373,-0.945555,2.342193\H,0,3.051247,-1.473122,3.401048\\Version=ES
 64L-G16RevB.01\State=1-A\HF=-2529.3914741\RMSD=3.922e-09\Dipole=-1.883
 7142,0.7089941,0.8834755\Quadrupole=17.775867,-0.7441669,-17.0317001,-
 0.4440788,2.4880176,-2.816739\PG=C01 [X(C47H57B1N3O3Si1)]\\@


 IN NATURE THERE ARE NEITHER REWARDS OR
 PUNISHMENTS -- THERE ARE CONSEQUENCES.

                            -- ROBERT GREEN INGERSOLL
 Job cpu time:       0 days  6 hours  5 minutes 48.2 seconds.
 Elapsed time:       0 days  0 hours 30 minutes 54.7 seconds.
 File lengths (MBytes):  RWF=    968 Int=      0 D2E=      0 Chk=    104 Scr=      1
 Normal termination of Gaussian 16 at Sat Dec  3 10:43:26 2022.
