 Entering Gaussian System, Link 0=/usr/local/shared/gaussian/x86_64_sse4/16-B01/g16/g16
 Initial command:
 /usr/local/shared/gaussian/x86_64_sse4/16-B01/g16/l1.exe "/scratch/ccl59/ol17ryu_e_int2_SSR_C_1_TSe_spe/Gau-18708.inp" -scrdir="/scratch/ccl59/ol17ryu_e_int2_SSR_C_1_TSe_spe/"
 Entering Link 1 = /usr/local/shared/gaussian/x86_64_sse4/16-B01/g16/l1.exe PID=     18709.
  
 Copyright (c) 1988-2017, Gaussian, Inc.  All Rights Reserved.
  
 This is part of the Gaussian(R) 16 program.  It is based on
 the Gaussian(R) 09 system (copyright 2009, Gaussian, Inc.),
 the Gaussian(R) 03 system (copyright 2003, Gaussian, Inc.),
 the Gaussian(R) 98 system (copyright 1998, Gaussian, Inc.),
 the Gaussian(R) 94 system (copyright 1995, Gaussian, Inc.),
 the Gaussian 92(TM) system (copyright 1992, Gaussian, Inc.),
 the Gaussian 90(TM) system (copyright 1990, Gaussian, Inc.),
 the Gaussian 88(TM) system (copyright 1988, Gaussian, Inc.),
 the Gaussian 86(TM) system (copyright 1986, Carnegie Mellon
 University), and the Gaussian 82(TM) system (copyright 1983,
 Carnegie Mellon University). Gaussian is a federally registered
 trademark of Gaussian, Inc.
  
 This software contains proprietary and confidential information,
 including trade secrets, belonging to Gaussian, Inc.
  
 This software is provided under written license and may be
 used, copied, transmitted, or stored only in accord with that
 written license.
  
 The following legend is applicable only to US Government
 contracts under FAR:
  
                    RESTRICTED RIGHTS LEGEND
  
 Use, reproduction and disclosure by the US Government is
 subject to restrictions as set forth in subparagraphs (a)
 and (c) of the Commercial Computer Software - Restricted
 Rights clause in FAR 52.227-19.
  
 Gaussian, Inc.
 340 Quinnipiac St., Bldg. 40, Wallingford CT 06492
  
  
 ---------------------------------------------------------------
 Warning -- This program may not be used in any manner that
 competes with the business of Gaussian, Inc. or will provide
 assistance to any competitor of Gaussian, Inc.  The licensee
 of this program is prohibited from giving any competitor of
 Gaussian, Inc. access to this program.  By using this program,
 the user acknowledges that Gaussian, Inc. is engaged in the
 business of creating and licensing software in the field of
 computational chemistry and represents and warrants to the
 licensee that it is not a competitor of Gaussian, Inc. and that
 it will not use this program in any manner prohibited above.
 ---------------------------------------------------------------
  

 Cite this work as:
 Gaussian 16, Revision B.01,
 M. J. Frisch, G. W. Trucks, H. B. Schlegel, G. E. Scuseria, 
 M. A. Robb, J. R. Cheeseman, G. Scalmani, V. Barone, 
 G. A. Petersson, H. Nakatsuji, X. Li, M. Caricato, A. V. Marenich, 
 J. Bloino, B. G. Janesko, R. Gomperts, B. Mennucci, H. P. Hratchian, 
 J. V. Ortiz, A. F. Izmaylov, J. L. Sonnenberg, D. Williams-Young, 
 F. Ding, F. Lipparini, F. Egidi, J. Goings, B. Peng, A. Petrone, 
 T. Henderson, D. Ranasinghe, V. G. Zakrzewski, J. Gao, N. Rega, 
 G. Zheng, W. Liang, M. Hada, M. Ehara, K. Toyota, R. Fukuda, 
 J. Hasegawa, M. Ishida, T. Nakajima, Y. Honda, O. Kitao, H. Nakai, 
 T. Vreven, K. Throssell, J. A. Montgomery, Jr., J. E. Peralta, 
 F. Ogliaro, M. J. Bearpark, J. J. Heyd, E. N. Brothers, K. N. Kudin, 
 V. N. Staroverov, T. A. Keith, R. Kobayashi, J. Normand, 
 K. Raghavachari, A. P. Rendell, J. C. Burant, S. S. Iyengar, 
 J. Tomasi, M. Cossi, J. M. Millam, M. Klene, C. Adamo, R. Cammi, 
 J. W. Ochterski, R. L. Martin, K. Morokuma, O. Farkas, 
 J. B. Foresman, and D. J. Fox, Gaussian, Inc., Wallingford CT, 2016.
 
 ******************************************
 Gaussian 16:  ES64L-G16RevB.01 20-Dec-2017
                 3-Dec-2022 
 ******************************************
 %nproc=12
 Will use up to   12 processors via shared memory.
 %mem=4GB
 ----------------------------------
 # wb97xd/6-311g(d,p) int=ultrafine
 ----------------------------------
 1/38=1,172=1/1;
 2/12=2,17=6,18=5,40=1/2;
 3/5=4,6=6,7=101,11=2,25=1,30=1,74=-58,75=-5/1,2,3;
 4//1;
 5/5=2,38=5/2;
 6/7=2,8=2,9=2,10=2,28=1/1;
 99/5=1,9=1/99;
 ------------------------------
 ol17ryu_e_int2_SSR_C_1_TSe_spe
 ------------------------------
 Symbolic Z-matrix:
 Charge =  1 Multiplicity = 1
 C                     1.8325    0.13119  -1.65292 
 N                     1.55744   1.4457   -0.98437 
 B                     0.67189   1.00596   0.31426 
 C                     0.76192   2.03266   1.53991 
 C                     0.57459   3.42137   1.36707 
 O                     0.35289   3.81727   0.06329 
 C                     0.24553   5.21774  -0.27832 
 C                    -0.37336   5.25469  -1.66892 
 C                     1.61267   5.90063  -0.23612 
 C                     0.59425   4.29777   2.45818 
 C                     0.81559   3.79309   3.74326 
 C                     1.01871   2.42987   3.94426 
 C                     0.98739   1.57012   2.84285 
 O                    -0.69303   0.85052  -0.28441 
 C                    -1.82493   1.46608   0.2249 
 C                    -2.83541   0.39717   0.68101 
 C                    -3.851     0.83383   1.70726 
 N                    -1.69032  -0.60402   1.71845 
 N                    -0.9832   -1.28366   2.22486 
 Si                   -3.4659   -1.04106  -0.53766 
 C                    -2.10243  -1.59068  -1.69003 
 C                    -4.94797  -0.25652  -1.39389 
 C                    -3.98544  -2.43304   0.60364 
 C                    -5.23573  -2.42797   1.25294 
 C                    -5.60596  -3.46039   2.11556 
 C                    -4.73141  -4.52516   2.34151 
 C                    -3.49225  -4.55684   1.69824 
 C                    -3.12339  -3.52255   0.83694 
 C                    -2.55309   2.32163  -0.81542 
 C                    -2.31871   2.10931  -2.17856 
 C                    -2.98722   2.87232  -3.13626 
 C                    -3.89702   3.85586  -2.73978 
 C                    -4.11911   4.08697  -1.37961 
 C                    -3.44694   3.32571  -0.42283 
 O                     1.2358   -0.29179   0.60663 
 C                     1.98952  -0.87943  -0.44916 
 C                     3.44674  -1.06377   0.01459 
 C                     4.33237  -1.87613  -0.70429 
 C                     5.67529  -1.99089  -0.33117 
 C                     6.62123  -2.88026  -1.10388 
 C                     6.12027  -1.28509   0.79347 
 C                     5.24833  -0.50031   1.5546 
 C                     5.73193   0.20882   2.79836 
 C                     3.91065  -0.40049   1.15329 
 C                     1.39331  -2.25057  -0.78321 
 C                     1.26498  -2.73368  -2.08784 
 C                     0.71264  -3.99693  -2.34314 
 C                     0.52523  -4.47719  -3.76302 
 C                     0.3106   -4.78166  -1.25883 
 C                     0.46138  -4.33745   0.06192 
 C                     0.09456  -5.22614   1.22789 
 C                     0.998    -3.06625   0.2833 
 C                     2.88272   2.14244  -0.81103 
 C                     3.85502   1.48728  -1.81905 
 C                     3.02196   0.42118  -2.57082 
 H                     0.92712  -0.14162  -2.19705 
 H                     0.95273   2.02571  -1.56488 
 H                    -0.44193   5.69779   0.4309 
 H                     0.26802   4.72349  -2.38246 
 H                    -0.47353   6.29028  -2.00941 
 H                    -1.35911   4.78683  -1.67235 
 H                     2.10946   5.76114   0.72741 
 H                     2.26311   5.49607  -1.01996 
 H                     1.50192   6.97568  -0.41307 
 H                     0.44705   5.36313   2.32757 
 H                     0.83459   4.4808    4.5843 
 H                     1.20237   2.04199   4.94199 
 H                     1.1535    0.50522   2.98563 
 H                    -1.58907   2.0995    1.09005 
 H                    -4.33906  -0.01715   2.18846 
 H                    -3.42941   1.50372   2.46288 
 H                    -4.62141   1.38538   1.15599 
 H                    -2.39897  -2.5228   -2.18447 
 H                    -1.16853  -1.77511  -1.15537 
 H                    -1.90243  -0.84223  -2.46028 
 H                    -5.72488   0.05581  -0.68834 
 H                    -5.39395  -1.00194  -2.06332 
 H                    -4.65835   0.61204  -1.99187 
 H                    -5.94062  -1.61825   1.07652 
 H                    -6.57629  -3.43831   2.60354 
 H                    -5.01809  -5.33164   3.01045 
 H                    -2.8148   -5.38891   1.86348 
 H                    -2.15816  -3.57366   0.33869 
 H                    -1.59664   1.35725  -2.47469 
 H                    -2.79504   2.70294  -4.19191 
 H                    -4.41864   4.4489   -3.48504 
 H                    -4.80555   4.86716  -1.06397 
 H                    -3.60251   3.53124   0.63328 
 H                     3.9745   -2.44189  -1.56039 
 H                     6.77453  -3.83502  -0.58466 
 H                     7.60596  -2.4137   -1.21754 
 H                     6.23619  -3.10849  -2.10302 
 H                     7.16511  -1.3613    1.08919 
 H                     5.79316  -0.48468   3.64709 
 H                     5.05593   1.02062   3.08656 
 H                     6.73251   0.6317    2.65582 
 H                     3.22072   0.20072   1.73405 
 H                     1.58749  -2.1316   -2.93371 
 H                     1.33249  -4.12687  -4.41534 
 H                    -0.41765  -4.10291  -4.18393 
 H                     0.4958   -5.56983  -3.81806 
 H                    -0.11389  -5.7663   -1.44382 
 H                     0.98759  -5.70434   1.64944 
 H                    -0.37746  -4.65564   2.03547 
 H                    -0.59063  -6.02493   0.92542 
 H                     1.13394  -2.70293   1.29687 
 H                     2.71827   3.20699  -0.97018 
 H                     3.20277   1.99904   0.21947 
 H                     4.68278   1.0179   -1.28386 
 H                     4.27657   2.22209  -2.51025 
 H                     3.60489  -0.47182  -2.80056 
 H                     2.64461   0.82329  -3.51846 
 
 Stoichiometry    C47H57BN3O3Si(1+)
 Framework group  C1[X(C47H57BN3O3Si)]
 Deg. of freedom   330
 Full point group                 C1      NOp   1
 Largest Abelian subgroup         C1      NOp   1
 Largest concise Abelian subgroup C1      NOp   1
                         Standard orientation:                         
 ---------------------------------------------------------------------
 Center     Atomic      Atomic             Coordinates (Angstroms)
 Number     Number       Type             X           Y           Z
 ---------------------------------------------------------------------
      1          6           0        1.832500    0.131194   -1.652919
      2          7           0        1.557444    1.445698   -0.984369
      3          5           0        0.671893    1.005963    0.314257
      4          6           0        0.761924    2.032660    1.539909
      5          6           0        0.574589    3.421373    1.367065
      6          8           0        0.352888    3.817266    0.063293
      7          6           0        0.245524    5.217740   -0.278321
      8          6           0       -0.373357    5.254691   -1.668923
      9          6           0        1.612664    5.900634   -0.236119
     10          6           0        0.594251    4.297765    2.458178
     11          6           0        0.815591    3.793091    3.743258
     12          6           0        1.018714    2.429865    3.944257
     13          6           0        0.987391    1.570119    2.842845
     14          8           0       -0.693026    0.850524   -0.284411
     15          6           0       -1.824925    1.466084    0.224903
     16          6           0       -2.835405    0.397166    0.681008
     17          6           0       -3.851002    0.833832    1.707258
     18          7           0       -1.690316   -0.604021    1.718445
     19          7           0       -0.983202   -1.283657    2.224862
     20         14           0       -3.465898   -1.041057   -0.537661
     21          6           0       -2.102431   -1.590683   -1.690028
     22          6           0       -4.947971   -0.256519   -1.393889
     23          6           0       -3.985435   -2.433035    0.603644
     24          6           0       -5.235728   -2.427966    1.252940
     25          6           0       -5.605961   -3.460388    2.115556
     26          6           0       -4.731410   -4.525160    2.341507
     27          6           0       -3.492253   -4.556840    1.698238
     28          6           0       -3.123393   -3.522545    0.836937
     29          6           0       -2.553086    2.321630   -0.815418
     30          6           0       -2.318711    2.109311   -2.178557
     31          6           0       -2.987221    2.872323   -3.136262
     32          6           0       -3.897023    3.855857   -2.739780
     33          6           0       -4.119109    4.086969   -1.379605
     34          6           0       -3.446942    3.325714   -0.422826
     35          8           0        1.235801   -0.291786    0.606625
     36          6           0        1.989522   -0.879425   -0.449155
     37          6           0        3.446738   -1.063773    0.014591
     38          6           0        4.332374   -1.876134   -0.704285
     39          6           0        5.675288   -1.990885   -0.331166
     40          6           0        6.621229   -2.880255   -1.103884
     41          6           0        6.120274   -1.285088    0.793467
     42          6           0        5.248334   -0.500309    1.554604
     43          6           0        5.731927    0.208819    2.798355
     44          6           0        3.910645   -0.400486    1.153289
     45          6           0        1.393311   -2.250570   -0.783213
     46          6           0        1.264984   -2.733679   -2.087838
     47          6           0        0.712643   -3.996929   -2.343143
     48          6           0        0.525227   -4.477189   -3.763022
     49          6           0        0.310602   -4.781658   -1.258826
     50          6           0        0.461382   -4.337449    0.061918
     51          6           0        0.094561   -5.226137    1.227887
     52          6           0        0.998003   -3.066250    0.283298
     53          6           0        2.882724    2.142440   -0.811026
     54          6           0        3.855024    1.487278   -1.819045
     55          6           0        3.021960    0.421176   -2.570820
     56          1           0        0.927124   -0.141623   -2.197047
     57          1           0        0.952734    2.025714   -1.564884
     58          1           0       -0.441926    5.697794    0.430898
     59          1           0        0.268015    4.723489   -2.382459
     60          1           0       -0.473534    6.290284   -2.009414
     61          1           0       -1.359114    4.786835   -1.672353
     62          1           0        2.109461    5.761142    0.727408
     63          1           0        2.263107    5.496069   -1.019962
     64          1           0        1.501923    6.975675   -0.413073
     65          1           0        0.447052    5.363134    2.327565
     66          1           0        0.834591    4.480802    4.584296
     67          1           0        1.202371    2.041990    4.941986
     68          1           0        1.153497    0.505217    2.985629
     69          1           0       -1.589074    2.099501    1.090051
     70          1           0       -4.339062   -0.017145    2.188461
     71          1           0       -3.429413    1.503722    2.462878
     72          1           0       -4.621408    1.385376    1.155986
     73          1           0       -2.398970   -2.522795   -2.184473
     74          1           0       -1.168525   -1.775108   -1.155372
     75          1           0       -1.902429   -0.842230   -2.460280
     76          1           0       -5.724880    0.055808   -0.688339
     77          1           0       -5.393946   -1.001936   -2.063315
     78          1           0       -4.658349    0.612035   -1.991873
     79          1           0       -5.940616   -1.618247    1.076518
     80          1           0       -6.576288   -3.438310    2.603541
     81          1           0       -5.018088   -5.331641    3.010454
     82          1           0       -2.814794   -5.388914    1.863479
     83          1           0       -2.158164   -3.573657    0.338689
     84          1           0       -1.596639    1.357253   -2.474693
     85          1           0       -2.795043    2.702937   -4.191912
     86          1           0       -4.418637    4.448901   -3.485043
     87          1           0       -4.805551    4.867161   -1.063974
     88          1           0       -3.602511    3.531241    0.633281
     89          1           0        3.974498   -2.441893   -1.560386
     90          1           0        6.774529   -3.835023   -0.584663
     91          1           0        7.605963   -2.413702   -1.217540
     92          1           0        6.236194   -3.108490   -2.103016
     93          1           0        7.165106   -1.361303    1.089185
     94          1           0        5.793162   -0.484681    3.647086
     95          1           0        5.055927    1.020619    3.086562
     96          1           0        6.732510    0.631703    2.655817
     97          1           0        3.220720    0.200723    1.734053
     98          1           0        1.587494   -2.131599   -2.933705
     99          1           0        1.332485   -4.126873   -4.415344
    100          1           0       -0.417649   -4.102914   -4.183927
    101          1           0        0.495803   -5.569830   -3.818057
    102          1           0       -0.113891   -5.766304   -1.443818
    103          1           0        0.987586   -5.704345    1.649438
    104          1           0       -0.377462   -4.655636    2.035472
    105          1           0       -0.590624   -6.024928    0.925422
    106          1           0        1.133940   -2.702934    1.296870
    107          1           0        2.718272    3.206986   -0.970181
    108          1           0        3.202772    1.999043    0.219470
    109          1           0        4.682780    1.017899   -1.283857
    110          1           0        4.276569    2.222086   -2.510252
    111          1           0        3.604887   -0.471818   -2.800558
    112          1           0        2.644609    0.823290   -3.518455
 ---------------------------------------------------------------------
 Rotational constants (GHZ):           0.0579835           0.0522279           0.0367320
 Standard basis: 6-311G(d,p) (5D, 7F)
 There are  1395 symmetry adapted cartesian basis functions of A   symmetry.
 There are  1340 symmetry adapted basis functions of A   symmetry.
  1340 basis functions,  2230 primitive gaussians,  1395 cartesian basis functions
   201 alpha electrons      201 beta electrons
       nuclear repulsion energy      8573.6605000524 Hartrees.
 NAtoms=  112 NActive=  112 NUniq=  112 SFac= 1.00D+00 NAtFMM=   60 NAOKFM=T Big=T
 Integral buffers will be    131072 words long.
 Raffenetti 2 integral format.
 Two-electron integral symmetry is turned on.
 Nuclear repulsion after empirical dispersion term =     8573.5193872271 Hartrees.
 One-electron integrals computed using PRISM.
 NBasis=  1340 RedAO= T EigKep=  1.20D-04  NBF=  1340
 NBsUse=  1340 1.00D-06 EigRej= -1.00D+00 NBFU=  1340
 ExpMin= 6.54D-02 ExpMax= 6.94D+04 ExpMxC= 2.33D+03 IAcc=3 IRadAn=         5 AccDes= 0.00D+00
 Harris functional with IExCor= 4639 and IRadAn=       5 diagonalized for initial guess.
 HarFok:  IExCor= 4639 AccDes= 0.00D+00 IRadAn=         5 IDoV= 1 UseB2=F ITyADJ=14
 ICtDFT=  3500011 ScaDFX=  1.000000  1.000000  1.000000  1.000000
 FoFCou: FMM=F IPFlag=           0 FMFlag=      100000 FMFlg1=        2001
         NFxFlg=           0 DoJE=T BraDBF=F KetDBF=T FulRan=T
         wScrn=  0.000000 ICntrl=       500 IOpCl=  0 I1Cent=   200000004 NGrid=           0
         NMat0=    1 NMatS0=      1 NMatT0=    0 NMatD0=    1 NMtDS0=    0 NMtDT0=    0
 Petite list used in FoFCou.
 Requested convergence on RMS density matrix=1.00D-08 within 128 cycles.
 Requested convergence on MAX density matrix=1.00D-06.
 Requested convergence on             energy=1.00D-06.
 No special actions if energy rises.
 Integral accuracy reduced to 1.0D-05 until final iterations.
 Initial convergence to 1.0D-05 achieved.  Increase integral accuracy.
 SCF Done:  E(RwB97XD) =  -2529.39339118     A.U. after   18 cycles
            NFock= 18  Conv=0.36D-08     -V/T= 2.0043
 Hyperfine terms turned off by default for NAtoms > 100.

 **********************************************************************

            Population analysis using the SCF Density.

 **********************************************************************

 Orbital symmetries:
       Occupied  (A) (A) (A) (A) (A) (A) (A) (A) (A) (A) (A) (A)
                 (A) (A) (A) (A) (A) (A) (A) (A) (A) (A) (A) (A)
                 (A) (A) (A) (A) (A) (A) (A) (A) (A) (A) (A) (A)
                 (A) (A) (A) (A) (A) (A) (A) (A) (A) (A) (A) (A)
                 (A) (A) (A) (A) (A) (A) (A) (A) (A) (A) (A) (A)
                 (A) (A) (A) (A) (A) (A) (A) (A) (A) (A) (A) (A)
                 (A) (A) (A) (A) (A) (A) (A) (A) (A) (A) (A) (A)
                 (A) (A) (A) (A) (A) (A) (A) (A) (A) (A) (A) (A)
                 (A) (A) (A) (A) (A) (A) (A) (A) (A) (A) (A) (A)
                 (A) (A) (A) (A) (A) (A) (A) (A) (A) (A) (A) (A)
                 (A) (A) (A) (A) (A) (A) (A) (A) (A) (A) (A) (A)
                 (A) (A) (A) (A) (A) (A) (A) (A) (A) (A) (A) (A)
                 (A) (A) (A) (A) (A) (A) (A) (A) (A) (A) (A) (A)
                 (A) (A) (A) (A) (A) (A) (A) (A) (A) (A) (A) (A)
                 (A) (A) (A) (A) (A) (A) (A) (A) (A) (A) (A) (A)
                 (A) (A) (A) (A) (A) (A) (A) (A) (A) (A) (A) (A)
                 (A) (A) (A) (A) (A) (A) (A) (A) (A)
       Virtual   (A) (A) (A) (A) (A) (A) (A) (A) (A) (A) (A) (A)
                 (A) (A) (A) (A) (A) (A) (A) (A) (A) (A) (A) (A)
                 (A) (A) (A) (A) (A) (A) (A) (A) (A) (A) (A) (A)
                 (A) (A) (A) (A) (A) (A) (A) (A) (A) (A) (A) (A)
                 (A) (A) (A) (A) (A) (A) (A) (A) (A) (A) (A) (A)
                 (A) (A) (A) (A) (A) (A) (A) (A) (A) (A) (A) (A)
                 (A) (A) (A) (A) (A) (A) (A) (A) (A) (A) (A) (A)
                 (A) (A) (A) (A) (A) (A) (A) (A) (A) (A) (A) (A)
                 (A) (A) (A) (A) (A) (A) (A) (A) (A) (A) (A) (A)
                 (A) (A) (A) (A) (A) (A) (A) (A) (A) (A) (A) (A)
                 (A) (A) (A) (A) (A) (A) (A) (A) (A) (A) (A) (A)
                 (A) (A) (A) (A) (A) (A) (A) (A) (A) (A) (A) (A)
                 (A) (A) (A) (A) (A) (A) (A) (A) (A) (A) (A) (A)
                 (A) (A) (A) (A) (A) (A) (A) (A) (A) (A) (A) (A)
                 (A) (A) (A) (A) (A) (A) (A) (A) (A) (A) (A) (A)
                 (A) (A) (A) (A) (A) (A) (A) (A) (A) (A) (A) (A)
                 (A) (A) (A) (A) (A) (A) (A) (A) (A) (A) (A) (A)
                 (A) (A) (A) (A) (A) (A) (A) (A) (A) (A) (A) (A)
                 (A) (A) (A) (A) (A) (A) (A) (A) (A) (A) (A) (A)
                 (A) (A) (A) (A) (A) (A) (A) (A) (A) (A) (A) (A)
                 (A) (A) (A) (A) (A) (A) (A) (A) (A) (A) (A) (A)
                 (A) (A) (A) (A) (A) (A) (A) (A) (A) (A) (A) (A)
                 (A) (A) (A) (A) (A) (A) (A) (A) (A) (A) (A) (A)
                 (A) (A) (A) (A) (A) (A) (A) (A) (A) (A) (A) (A)
                 (A) (A) (A) (A) (A) (A) (A) (A) (A) (A) (A) (A)
                 (A) (A) (A) (A) (A) (A) (A) (A) (A) (A) (A) (A)
                 (A) (A) (A) (A) (A) (A) (A) (A) (A) (A) (A) (A)
                 (A) (A) (A) (A) (A) (A) (A) (A) (A) (A) (A) (A)
                 (A) (A) (A) (A) (A) (A) (A) (A) (A) (A) (A) (A)
                 (A) (A) (A) (A) (A) (A) (A) (A) (A) (A) (A) (A)
                 (A) (A) (A) (A) (A) (A) (A) (A) (A) (A) (A) (A)
                 (A) (A) (A) (A) (A) (A) (A) (A) (A) (A) (A) (A)
                 (A) (A) (A) (A) (A) (A) (A) (A) (A) (A) (A) (A)
                 (A) (A) (A) (A) (A) (A) (A) (A) (A) (A) (A) (A)
                 (A) (A) (A) (A) (A) (A) (A) (A) (A) (A) (A) (A)
                 (A) (A) (A) (A) (A) (A) (A) (A) (A) (A) (A) (A)
                 (A) (A) (A) (A) (A) (A) (A) (A) (A) (A) (A) (A)
                 (A) (A) (A) (A) (A) (A) (A) (A) (A) (A) (A) (A)
                 (A) (A) (A) (A) (A) (A) (A) (A) (A) (A) (A) (A)
                 (A) (A) (A) (A) (A) (A) (A) (A) (A) (A) (A) (A)
                 (A) (A) (A) (A) (A) (A) (A) (A) (A) (A) (A) (A)
                 (A) (A) (A) (A) (A) (A) (A) (A) (A) (A) (A) (A)
                 (A) (A) (A) (A) (A) (A) (A) (A) (A) (A) (A) (A)
                 (A) (A) (A) (A) (A) (A) (A) (A) (A) (A) (A) (A)
                 (A) (A) (A) (A) (A) (A) (A) (A) (A) (A) (A) (A)
                 (A) (A) (A) (A) (A) (A) (A) (A) (A) (A) (A) (A)
                 (A) (A) (A) (A) (A) (A) (A) (A) (A) (A) (A) (A)
                 (A) (A) (A) (A) (A) (A) (A) (A) (A) (A) (A) (A)
                 (A) (A) (A) (A) (A) (A) (A) (A) (A) (A) (A) (A)
                 (A) (A) (A) (A) (A) (A) (A) (A) (A) (A) (A) (A)
                 (A) (A) (A) (A) (A) (A) (A) (A) (A) (A) (A) (A)
                 (A) (A) (A) (A) (A) (A) (A) (A) (A) (A) (A) (A)
                 (A) (A) (A) (A) (A) (A) (A) (A) (A) (A) (A) (A)
                 (A) (A) (A) (A) (A) (A) (A) (A) (A) (A) (A) (A)
                 (A) (A) (A) (A) (A) (A) (A) (A) (A) (A) (A) (A)
                 (A) (A) (A) (A) (A) (A) (A) (A) (A) (A) (A) (A)
                 (A) (A) (A) (A) (A) (A) (A) (A) (A) (A) (A) (A)
                 (A) (A) (A) (A) (A) (A) (A) (A) (A) (A) (A) (A)
                 (A) (A) (A) (A) (A) (A) (A) (A) (A) (A) (A) (A)
                 (A) (A) (A) (A) (A) (A) (A) (A) (A) (A) (A) (A)
                 (A) (A) (A) (A) (A) (A) (A) (A) (A) (A) (A) (A)
                 (A) (A) (A) (A) (A) (A) (A) (A) (A) (A) (A) (A)
                 (A) (A) (A) (A) (A) (A) (A) (A) (A) (A) (A) (A)
                 (A) (A) (A) (A) (A) (A) (A) (A) (A) (A) (A) (A)
                 (A) (A) (A) (A) (A) (A) (A) (A) (A) (A) (A) (A)
                 (A) (A) (A) (A) (A) (A) (A) (A) (A) (A) (A) (A)
                 (A) (A) (A) (A) (A) (A) (A) (A) (A) (A) (A) (A)
                 (A) (A) (A) (A) (A) (A) (A) (A) (A) (A) (A) (A)
                 (A) (A) (A) (A) (A) (A) (A) (A) (A) (A) (A) (A)
                 (A) (A) (A) (A) (A) (A) (A) (A) (A) (A) (A) (A)
                 (A) (A) (A) (A) (A) (A) (A) (A) (A) (A) (A) (A)
                 (A) (A) (A) (A) (A) (A) (A) (A) (A) (A) (A) (A)
                 (A) (A) (A) (A) (A) (A) (A) (A) (A) (A) (A) (A)
                 (A) (A) (A) (A) (A) (A) (A) (A) (A) (A) (A) (A)
                 (A) (A) (A) (A) (A) (A) (A) (A) (A) (A) (A) (A)
                 (A) (A) (A) (A) (A) (A) (A) (A) (A) (A) (A) (A)
                 (A) (A) (A) (A) (A) (A) (A) (A) (A) (A) (A) (A)
                 (A) (A) (A) (A) (A) (A) (A) (A) (A) (A) (A) (A)
                 (A) (A) (A) (A) (A) (A) (A) (A) (A) (A) (A) (A)
                 (A) (A) (A) (A) (A) (A) (A) (A) (A) (A) (A) (A)
                 (A) (A) (A) (A) (A) (A) (A) (A) (A) (A) (A) (A)
                 (A) (A) (A) (A) (A) (A) (A) (A) (A) (A) (A) (A)
                 (A) (A) (A) (A) (A) (A) (A) (A) (A) (A) (A) (A)
                 (A) (A) (A) (A) (A) (A) (A) (A) (A) (A) (A) (A)
                 (A) (A) (A) (A) (A) (A) (A) (A) (A) (A) (A) (A)
                 (A) (A) (A) (A) (A) (A) (A) (A) (A) (A) (A) (A)
                 (A) (A) (A) (A) (A) (A) (A) (A) (A) (A) (A) (A)
                 (A) (A) (A) (A) (A) (A) (A) (A) (A) (A) (A) (A)
                 (A) (A) (A) (A) (A) (A) (A) (A) (A) (A) (A) (A)
                 (A) (A) (A) (A) (A) (A) (A) (A) (A) (A) (A) (A)
                 (A) (A) (A) (A) (A) (A) (A) (A) (A) (A) (A) (A)
                 (A) (A) (A) (A) (A) (A) (A) (A) (A) (A) (A) (A)
                 (A) (A) (A) (A) (A) (A) (A) (A) (A) (A) (A) (A)
                 (A) (A) (A) (A) (A) (A) (A) (A) (A) (A) (A) (A)
                 (A) (A) (A) (A) (A) (A) (A) (A) (A) (A) (A)
 The electronic state is 1-A.
 Alpha  occ. eigenvalues --  -66.36001 -19.35596 -19.32158 -19.30280 -14.69654
 Alpha  occ. eigenvalues --  -14.68960 -14.58115 -10.50961 -10.46358 -10.44203
 Alpha  occ. eigenvalues --  -10.42926 -10.42834 -10.42271 -10.41434 -10.40767
 Alpha  occ. eigenvalues --  -10.40516 -10.39360 -10.38974 -10.38967 -10.38895
 Alpha  occ. eigenvalues --  -10.38763 -10.38660 -10.38322 -10.37974 -10.37826
 Alpha  occ. eigenvalues --  -10.37817 -10.37791 -10.37743 -10.37554 -10.37543
 Alpha  occ. eigenvalues --  -10.37529 -10.37104 -10.36654 -10.36526 -10.36436
 Alpha  occ. eigenvalues --  -10.36375 -10.36354 -10.36332 -10.36266 -10.36247
 Alpha  occ. eigenvalues --  -10.35778 -10.35682 -10.35638 -10.35609 -10.35533
 Alpha  occ. eigenvalues --  -10.35525 -10.35466 -10.35255 -10.34939 -10.34572
 Alpha  occ. eigenvalues --  -10.34560 -10.34374 -10.34059 -10.34057  -6.96287
 Alpha  occ. eigenvalues --   -5.49381  -3.83972  -3.83710  -3.83658  -1.37370
 Alpha  occ. eigenvalues --   -1.24459  -1.22515  -1.19791  -1.14444  -1.06595
 Alpha  occ. eigenvalues --   -1.04766  -1.04461  -1.03647  -1.03090  -1.03003
 Alpha  occ. eigenvalues --   -0.98395  -0.97552  -0.96356  -0.96140  -0.95933
 Alpha  occ. eigenvalues --   -0.94880  -0.94643  -0.93973  -0.93765  -0.93233
 Alpha  occ. eigenvalues --   -0.92832  -0.92242  -0.90721  -0.90293  -0.89945
 Alpha  occ. eigenvalues --   -0.87834  -0.87244  -0.86918  -0.85950  -0.85595
 Alpha  occ. eigenvalues --   -0.85573  -0.84578  -0.84298  -0.80700  -0.80522
 Alpha  occ. eigenvalues --   -0.79647  -0.78905  -0.78846  -0.78579  -0.78213
 Alpha  occ. eigenvalues --   -0.77797  -0.76634  -0.76181  -0.74732  -0.74416
 Alpha  occ. eigenvalues --   -0.73691  -0.72968  -0.72504  -0.72054  -0.71617
 Alpha  occ. eigenvalues --   -0.70909  -0.70343  -0.70231  -0.69591  -0.68937
 Alpha  occ. eigenvalues --   -0.68239  -0.67017  -0.66693  -0.66320  -0.65546
 Alpha  occ. eigenvalues --   -0.65008  -0.64912  -0.64503  -0.63977  -0.63751
 Alpha  occ. eigenvalues --   -0.63620  -0.63389  -0.62986  -0.62813  -0.62282
 Alpha  occ. eigenvalues --   -0.62002  -0.61659  -0.61528  -0.61155  -0.60890
 Alpha  occ. eigenvalues --   -0.60838  -0.60606  -0.60435  -0.60276  -0.59761
 Alpha  occ. eigenvalues --   -0.59136  -0.58979  -0.58582  -0.58342  -0.57751
 Alpha  occ. eigenvalues --   -0.57426  -0.57400  -0.57242  -0.57072  -0.56787
 Alpha  occ. eigenvalues --   -0.56553  -0.56481  -0.56415  -0.56140  -0.56035
 Alpha  occ. eigenvalues --   -0.55920  -0.55729  -0.55442  -0.55350  -0.55213
 Alpha  occ. eigenvalues --   -0.54893  -0.54674  -0.54423  -0.54292  -0.53668
 Alpha  occ. eigenvalues --   -0.53265  -0.53123  -0.52853  -0.52749  -0.52483
 Alpha  occ. eigenvalues --   -0.52043  -0.51981  -0.51963  -0.51712  -0.51125
 Alpha  occ. eigenvalues --   -0.50748  -0.50597  -0.50282  -0.50010  -0.49700
 Alpha  occ. eigenvalues --   -0.49355  -0.49187  -0.48961  -0.48596  -0.48347
 Alpha  occ. eigenvalues --   -0.47970  -0.47928  -0.46887  -0.46164  -0.45295
 Alpha  occ. eigenvalues --   -0.43327  -0.43038  -0.42393  -0.42238  -0.42204
 Alpha  occ. eigenvalues --   -0.40559  -0.39937  -0.39250  -0.38139  -0.37873
 Alpha  occ. eigenvalues --   -0.37637
 Alpha virt. eigenvalues --   -0.12086  -0.09300  -0.08040  -0.04996  -0.04604
 Alpha virt. eigenvalues --   -0.03492  -0.03295  -0.02512  -0.02408  -0.01993
 Alpha virt. eigenvalues --   -0.01274  -0.00911  -0.00207   0.00219   0.01566
 Alpha virt. eigenvalues --    0.02636   0.03635   0.03943   0.04122   0.04686
 Alpha virt. eigenvalues --    0.05267   0.05487   0.05612   0.06085   0.06329
 Alpha virt. eigenvalues --    0.06457   0.06747   0.07372   0.07561   0.07586
 Alpha virt. eigenvalues --    0.08009   0.08361   0.08539   0.08625   0.08954
 Alpha virt. eigenvalues --    0.09171   0.09175   0.09334   0.09422   0.09759
 Alpha virt. eigenvalues --    0.09902   0.10036   0.10636   0.10697   0.10851
 Alpha virt. eigenvalues --    0.11004   0.11103   0.11334   0.11476   0.11694
 Alpha virt. eigenvalues --    0.12049   0.12303   0.12362   0.12496   0.12597
 Alpha virt. eigenvalues --    0.12826   0.12917   0.13131   0.13206   0.13441
 Alpha virt. eigenvalues --    0.13960   0.14008   0.14513   0.14592   0.14773
 Alpha virt. eigenvalues --    0.14828   0.15020   0.15162   0.15449   0.15681
 Alpha virt. eigenvalues --    0.15863   0.16244   0.16382   0.16658   0.17210
 Alpha virt. eigenvalues --    0.17361   0.17615   0.17828   0.17946   0.18305
 Alpha virt. eigenvalues --    0.18481   0.18710   0.18901   0.19383   0.19688
 Alpha virt. eigenvalues --    0.20062   0.20274   0.20668   0.21113   0.21354
 Alpha virt. eigenvalues --    0.22156   0.22389   0.22615   0.22724   0.23030
 Alpha virt. eigenvalues --    0.23422   0.24022   0.24276   0.24571   0.25000
 Alpha virt. eigenvalues --    0.25082   0.25470   0.25605   0.25770   0.25931
 Alpha virt. eigenvalues --    0.26227   0.26448   0.26716   0.27387   0.27596
 Alpha virt. eigenvalues --    0.27657   0.27893   0.28083   0.28181   0.28498
 Alpha virt. eigenvalues --    0.28875   0.28955   0.29098   0.29672   0.29682
 Alpha virt. eigenvalues --    0.30204   0.30266   0.30430   0.30935   0.31231
 Alpha virt. eigenvalues --    0.31468   0.31667   0.32159   0.32340   0.32590
 Alpha virt. eigenvalues --    0.32850   0.33182   0.33669   0.33870   0.34139
 Alpha virt. eigenvalues --    0.34356   0.34661   0.35123   0.35232   0.35312
 Alpha virt. eigenvalues --    0.35574   0.35836   0.36085   0.36648   0.36830
 Alpha virt. eigenvalues --    0.36994   0.37489   0.37566   0.37835   0.38107
 Alpha virt. eigenvalues --    0.38411   0.38843   0.39122   0.39349   0.39750
 Alpha virt. eigenvalues --    0.39936   0.40072   0.40404   0.40551   0.40746
 Alpha virt. eigenvalues --    0.41081   0.41247   0.41442   0.41731   0.41921
 Alpha virt. eigenvalues --    0.42097   0.42442   0.42602   0.42821   0.43112
 Alpha virt. eigenvalues --    0.43272   0.43489   0.43841   0.44016   0.44322
 Alpha virt. eigenvalues --    0.44498   0.44711   0.45003   0.45276   0.45619
 Alpha virt. eigenvalues --    0.45871   0.45997   0.46423   0.46503   0.46613
 Alpha virt. eigenvalues --    0.46987   0.47124   0.47230   0.47452   0.47787
 Alpha virt. eigenvalues --    0.48133   0.48347   0.48798   0.49020   0.49254
 Alpha virt. eigenvalues --    0.49279   0.49663   0.49901   0.50153   0.50507
 Alpha virt. eigenvalues --    0.50583   0.50830   0.51230   0.51356   0.51836
 Alpha virt. eigenvalues --    0.51857   0.52103   0.52292   0.52586   0.52904
 Alpha virt. eigenvalues --    0.53445   0.53486   0.53721   0.54471   0.54567
 Alpha virt. eigenvalues --    0.54717   0.55206   0.55354   0.55515   0.55804
 Alpha virt. eigenvalues --    0.55929   0.56134   0.56367   0.56568   0.56682
 Alpha virt. eigenvalues --    0.56738   0.56974   0.57482   0.57572   0.57882
 Alpha virt. eigenvalues --    0.58141   0.58319   0.58482   0.58632   0.58881
 Alpha virt. eigenvalues --    0.59030   0.59120   0.59237   0.59414   0.59558
 Alpha virt. eigenvalues --    0.59750   0.59887   0.60094   0.60464   0.60539
 Alpha virt. eigenvalues --    0.60734   0.60814   0.60941   0.61216   0.61379
 Alpha virt. eigenvalues --    0.61580   0.61760   0.61863   0.61969   0.62129
 Alpha virt. eigenvalues --    0.62272   0.62565   0.62614   0.62823   0.63053
 Alpha virt. eigenvalues --    0.63213   0.63454   0.63685   0.63862   0.64101
 Alpha virt. eigenvalues --    0.64209   0.64649   0.64790   0.64954   0.65099
 Alpha virt. eigenvalues --    0.65308   0.65381   0.65469   0.65935   0.66207
 Alpha virt. eigenvalues --    0.66284   0.66634   0.67024   0.67152   0.67298
 Alpha virt. eigenvalues --    0.67719   0.67870   0.68097   0.68222   0.68589
 Alpha virt. eigenvalues --    0.68941   0.69142   0.69451   0.69597   0.69942
 Alpha virt. eigenvalues --    0.70083   0.70325   0.70692   0.70751   0.71199
 Alpha virt. eigenvalues --    0.71593   0.71947   0.72264   0.72471   0.72591
 Alpha virt. eigenvalues --    0.73010   0.73046   0.73243   0.73407   0.73730
 Alpha virt. eigenvalues --    0.73834   0.74467   0.74965   0.75146   0.75337
 Alpha virt. eigenvalues --    0.75784   0.75988   0.76294   0.76478   0.76733
 Alpha virt. eigenvalues --    0.77193   0.77354   0.77409   0.78004   0.78376
 Alpha virt. eigenvalues --    0.78924   0.79288   0.79821   0.80086   0.80465
 Alpha virt. eigenvalues --    0.80697   0.80999   0.81291   0.81489   0.81795
 Alpha virt. eigenvalues --    0.82099   0.82502   0.83309   0.83541   0.83951
 Alpha virt. eigenvalues --    0.84346   0.84961   0.85046   0.85315   0.85774
 Alpha virt. eigenvalues --    0.86160   0.86505   0.86739   0.87093   0.87467
 Alpha virt. eigenvalues --    0.87639   0.88085   0.88507   0.88590   0.89011
 Alpha virt. eigenvalues --    0.89451   0.89742   0.90453   0.90870   0.91480
 Alpha virt. eigenvalues --    0.91835   0.92347   0.92847   0.93282   0.93604
 Alpha virt. eigenvalues --    0.93967   0.95040   0.95347   0.95497   0.95607
 Alpha virt. eigenvalues --    0.95970   0.96454   0.96747   0.96953   0.98048
 Alpha virt. eigenvalues --    0.98464   0.98788   0.98980   0.99155   1.00067
 Alpha virt. eigenvalues --    1.00211   1.00363   1.00538   1.01113   1.01376
 Alpha virt. eigenvalues --    1.01738   1.01968   1.02422   1.03388   1.03445
 Alpha virt. eigenvalues --    1.03736   1.04222   1.04813   1.05139   1.05235
 Alpha virt. eigenvalues --    1.06014   1.06190   1.06249   1.06388   1.06762
 Alpha virt. eigenvalues --    1.07176   1.07663   1.07850   1.08155   1.08467
 Alpha virt. eigenvalues --    1.08683   1.09398   1.09529   1.09738   1.10553
 Alpha virt. eigenvalues --    1.10784   1.10940   1.11457   1.11650   1.11769
 Alpha virt. eigenvalues --    1.12337   1.12844   1.12931   1.13552   1.13873
 Alpha virt. eigenvalues --    1.13931   1.14903   1.15110   1.15998   1.16215
 Alpha virt. eigenvalues --    1.16524   1.17356   1.17506   1.17694   1.18134
 Alpha virt. eigenvalues --    1.19320   1.19363   1.19787   1.20071   1.21093
 Alpha virt. eigenvalues --    1.21533   1.22486   1.23323   1.23775   1.23943
 Alpha virt. eigenvalues --    1.25259   1.25752   1.25978   1.26559   1.27070
 Alpha virt. eigenvalues --    1.28065   1.28678   1.29167   1.29590   1.30344
 Alpha virt. eigenvalues --    1.30569   1.31294   1.31838   1.32562   1.32892
 Alpha virt. eigenvalues --    1.33706   1.33945   1.34121   1.34771   1.35178
 Alpha virt. eigenvalues --    1.35582   1.35758   1.36153   1.36790   1.37349
 Alpha virt. eigenvalues --    1.37726   1.38090   1.38513   1.38959   1.39189
 Alpha virt. eigenvalues --    1.39452   1.40144   1.40377   1.40737   1.41297
 Alpha virt. eigenvalues --    1.41525   1.42148   1.42238   1.42616   1.43076
 Alpha virt. eigenvalues --    1.43456   1.44063   1.44692   1.45167   1.45657
 Alpha virt. eigenvalues --    1.45766   1.46051   1.46336   1.46496   1.47002
 Alpha virt. eigenvalues --    1.47129   1.47334   1.47417   1.47660   1.48038
 Alpha virt. eigenvalues --    1.48157   1.48301   1.48444   1.48552   1.48658
 Alpha virt. eigenvalues --    1.48863   1.49055   1.49606   1.50013   1.50051
 Alpha virt. eigenvalues --    1.50545   1.50623   1.50876   1.51065   1.51174
 Alpha virt. eigenvalues --    1.51355   1.51826   1.51901   1.52088   1.52290
 Alpha virt. eigenvalues --    1.52365   1.52834   1.53113   1.53403   1.53495
 Alpha virt. eigenvalues --    1.53928   1.54112   1.54372   1.54607   1.54959
 Alpha virt. eigenvalues --    1.55046   1.55597   1.55714   1.55777   1.56024
 Alpha virt. eigenvalues --    1.56444   1.56547   1.56798   1.57104   1.57498
 Alpha virt. eigenvalues --    1.57940   1.58388   1.58411   1.58528   1.58707
 Alpha virt. eigenvalues --    1.58908   1.59061   1.59405   1.59727   1.60025
 Alpha virt. eigenvalues --    1.60115   1.60517   1.60721   1.60963   1.61201
 Alpha virt. eigenvalues --    1.61603   1.61794   1.61922   1.62151   1.62523
 Alpha virt. eigenvalues --    1.62659   1.62984   1.63247   1.63576   1.63654
 Alpha virt. eigenvalues --    1.63914   1.64058   1.64455   1.64656   1.64977
 Alpha virt. eigenvalues --    1.65456   1.65698   1.65919   1.66062   1.66660
 Alpha virt. eigenvalues --    1.67175   1.67386   1.67659   1.68146   1.68747
 Alpha virt. eigenvalues --    1.69052   1.69287   1.69662   1.69748   1.70122
 Alpha virt. eigenvalues --    1.70416   1.71248   1.71598   1.71718   1.71850
 Alpha virt. eigenvalues --    1.72339   1.72602   1.72881   1.73318   1.73525
 Alpha virt. eigenvalues --    1.73707   1.73856   1.74255   1.74425   1.74922
 Alpha virt. eigenvalues --    1.75241   1.75381   1.75831   1.75957   1.76351
 Alpha virt. eigenvalues --    1.76556   1.77030   1.77318   1.77404   1.77751
 Alpha virt. eigenvalues --    1.78316   1.78538   1.78627   1.79064   1.79479
 Alpha virt. eigenvalues --    1.79604   1.79789   1.80207   1.80727   1.80950
 Alpha virt. eigenvalues --    1.81678   1.82059   1.82212   1.82562   1.82734
 Alpha virt. eigenvalues --    1.82973   1.83465   1.83514   1.83922   1.84319
 Alpha virt. eigenvalues --    1.84851   1.85142   1.85455   1.85631   1.86092
 Alpha virt. eigenvalues --    1.86683   1.87362   1.87647   1.88528   1.88849
 Alpha virt. eigenvalues --    1.89184   1.89412   1.90244   1.90619   1.90662
 Alpha virt. eigenvalues --    1.90839   1.90963   1.91465   1.91485   1.91732
 Alpha virt. eigenvalues --    1.92146   1.92351   1.92459   1.92538   1.92750
 Alpha virt. eigenvalues --    1.93111   1.93641   1.93909   1.94262   1.94480
 Alpha virt. eigenvalues --    1.94766   1.95187   1.95314   1.95493   1.96210
 Alpha virt. eigenvalues --    1.96344   1.96509   1.97038   1.97120   1.97271
 Alpha virt. eigenvalues --    1.97643   1.97926   1.98163   1.99090   1.99175
 Alpha virt. eigenvalues --    1.99551   2.00333   2.00832   2.01163   2.01439
 Alpha virt. eigenvalues --    2.01816   2.01970   2.02202   2.02623   2.03336
 Alpha virt. eigenvalues --    2.03454   2.03752   2.04510   2.04541   2.05220
 Alpha virt. eigenvalues --    2.05696   2.05949   2.06354   2.06707   2.06814
 Alpha virt. eigenvalues --    2.06933   2.07438   2.07527   2.08014   2.08585
 Alpha virt. eigenvalues --    2.08776   2.09310   2.09538   2.10081   2.10476
 Alpha virt. eigenvalues --    2.11114   2.11514   2.11671   2.12173   2.12846
 Alpha virt. eigenvalues --    2.13150   2.13596   2.14035   2.14299   2.14737
 Alpha virt. eigenvalues --    2.15463   2.15757   2.16358   2.16429   2.17497
 Alpha virt. eigenvalues --    2.18093   2.18444   2.19127   2.19538   2.20156
 Alpha virt. eigenvalues --    2.20453   2.21270   2.21413   2.21739   2.22818
 Alpha virt. eigenvalues --    2.23901   2.23960   2.24476   2.24814   2.24912
 Alpha virt. eigenvalues --    2.25783   2.26392   2.26559   2.27158   2.27415
 Alpha virt. eigenvalues --    2.27623   2.28117   2.28359   2.28726   2.29081
 Alpha virt. eigenvalues --    2.29680   2.30527   2.30995   2.31572   2.31737
 Alpha virt. eigenvalues --    2.32031   2.32353   2.32777   2.33137   2.33468
 Alpha virt. eigenvalues --    2.33833   2.34129   2.34537   2.34998   2.35282
 Alpha virt. eigenvalues --    2.35584   2.35731   2.36075   2.36631   2.36992
 Alpha virt. eigenvalues --    2.37375   2.37799   2.37948   2.38240   2.38526
 Alpha virt. eigenvalues --    2.38804   2.38885   2.39353   2.39719   2.39843
 Alpha virt. eigenvalues --    2.40479   2.40690   2.41359   2.41776   2.41915
 Alpha virt. eigenvalues --    2.42512   2.43151   2.43755   2.45319   2.45389
 Alpha virt. eigenvalues --    2.45642   2.46191   2.46753   2.47349   2.48219
 Alpha virt. eigenvalues --    2.48280   2.48849   2.49022   2.49206   2.49960
 Alpha virt. eigenvalues --    2.50742   2.51236   2.51447   2.51562   2.51708
 Alpha virt. eigenvalues --    2.51894   2.52339   2.52684   2.53354   2.53756
 Alpha virt. eigenvalues --    2.54311   2.54571   2.54942   2.55204   2.55553
 Alpha virt. eigenvalues --    2.55651   2.56006   2.56366   2.56745   2.57093
 Alpha virt. eigenvalues --    2.57227   2.57524   2.57957   2.58284   2.58517
 Alpha virt. eigenvalues --    2.58755   2.59005   2.59391   2.59499   2.59993
 Alpha virt. eigenvalues --    2.60422   2.60709   2.60928   2.61140   2.61483
 Alpha virt. eigenvalues --    2.61926   2.62220   2.62594   2.62759   2.63326
 Alpha virt. eigenvalues --    2.63626   2.63670   2.64115   2.64448   2.64813
 Alpha virt. eigenvalues --    2.65009   2.65234   2.65565   2.65981   2.66314
 Alpha virt. eigenvalues --    2.66371   2.66670   2.66954   2.67057   2.67351
 Alpha virt. eigenvalues --    2.67648   2.67971   2.68205   2.68958   2.69130
 Alpha virt. eigenvalues --    2.69626   2.70104   2.70316   2.71355   2.71672
 Alpha virt. eigenvalues --    2.72149   2.72916   2.73012   2.73236   2.74013
 Alpha virt. eigenvalues --    2.74482   2.74603   2.75632   2.76041   2.76283
 Alpha virt. eigenvalues --    2.76470   2.76915   2.77158   2.77527   2.77993
 Alpha virt. eigenvalues --    2.78393   2.79199   2.79245   2.79634   2.80052
 Alpha virt. eigenvalues --    2.80514   2.80679   2.81057   2.81433   2.81670
 Alpha virt. eigenvalues --    2.82010   2.82097   2.82737   2.83098   2.83435
 Alpha virt. eigenvalues --    2.83688   2.83835   2.84197   2.84322   2.84867
 Alpha virt. eigenvalues --    2.85160   2.85991   2.86076   2.86274   2.86980
 Alpha virt. eigenvalues --    2.87341   2.87659   2.87825   2.88757   2.89122
 Alpha virt. eigenvalues --    2.89557   2.89967   2.90488   2.90570   2.90998
 Alpha virt. eigenvalues --    2.91490   2.91584   2.92497   2.92660   2.92915
 Alpha virt. eigenvalues --    2.93231   2.93494   2.94195   2.94919   2.95170
 Alpha virt. eigenvalues --    2.95630   2.95753   2.97081   2.97552   2.98002
 Alpha virt. eigenvalues --    2.98687   2.99233   3.00490   3.01374   3.01808
 Alpha virt. eigenvalues --    3.02632   3.03802   3.04222   3.04945   3.05627
 Alpha virt. eigenvalues --    3.06490   3.06954   3.08696   3.09609   3.09948
 Alpha virt. eigenvalues --    3.10358   3.10809   3.11745   3.12966   3.14002
 Alpha virt. eigenvalues --    3.14534   3.15241   3.16070   3.16836   3.17788
 Alpha virt. eigenvalues --    3.18250   3.19076   3.19388   3.19794   3.20638
 Alpha virt. eigenvalues --    3.21508   3.22216   3.22481   3.22949   3.24144
 Alpha virt. eigenvalues --    3.24610   3.25423   3.26389   3.26751   3.27690
 Alpha virt. eigenvalues --    3.28097   3.28697   3.30246   3.31742   3.32757
 Alpha virt. eigenvalues --    3.34412   3.34922   3.35596   3.36401   3.37284
 Alpha virt. eigenvalues --    3.37749   3.38544   3.39028   3.39780   3.41019
 Alpha virt. eigenvalues --    3.41382   3.41881   3.43269   3.43675   3.44817
 Alpha virt. eigenvalues --    3.46292   3.47616   3.48563   3.49402   3.50873
 Alpha virt. eigenvalues --    3.51359   3.52915   3.53070   3.53603   3.57055
 Alpha virt. eigenvalues --    3.57662   3.58176   3.60155   3.61516   3.62111
 Alpha virt. eigenvalues --    3.64323   3.65104   3.65946   3.66132   3.67927
 Alpha virt. eigenvalues --    3.68921   3.69953   3.70165   3.71522   3.73277
 Alpha virt. eigenvalues --    3.73732   3.74270   3.75268   3.76657   3.77263
 Alpha virt. eigenvalues --    3.78488   3.78688   3.79512   3.79826   3.80294
 Alpha virt. eigenvalues --    3.81307   3.81502   3.81941   3.81995   3.82277
 Alpha virt. eigenvalues --    3.82937   3.83487   3.83904   3.84287   3.84738
 Alpha virt. eigenvalues --    3.85173   3.85823   3.86392   3.86802   3.89987
 Alpha virt. eigenvalues --    3.97486   3.98394   3.99305   3.99541   4.00183
 Alpha virt. eigenvalues --    4.02331   4.02596   4.02763   4.04612   4.04982
 Alpha virt. eigenvalues --    4.05645   4.10533   4.12751   4.13502   4.13766
 Alpha virt. eigenvalues --    4.14482   4.15099   4.16191   4.16365   4.17636
 Alpha virt. eigenvalues --    4.19099   4.19390   4.20166   4.21931   4.23071
 Alpha virt. eigenvalues --    4.23671   4.26141   4.30741   4.33714   4.35380
 Alpha virt. eigenvalues --    4.35667   4.36582   4.36863   4.37462   4.38541
 Alpha virt. eigenvalues --    4.40396   4.42523   4.54413   4.68420   4.80498
 Alpha virt. eigenvalues --    4.81106   4.83892   4.84544   4.86544   4.87813
 Alpha virt. eigenvalues --    4.89753   5.12435   5.21447   5.30477   5.32851
 Alpha virt. eigenvalues --    5.40885   5.52579   5.72075   5.80012   5.82093
 Alpha virt. eigenvalues --    5.83780  11.49939  11.58339  11.65777  14.70784
 Alpha virt. eigenvalues --   23.58552  23.59403  23.60596  23.61791  23.66340
 Alpha virt. eigenvalues --   23.71966  23.81122  23.83407  23.83787  23.88252
 Alpha virt. eigenvalues --   23.92434  23.93104  23.93417  23.94426  23.94852
 Alpha virt. eigenvalues --   23.95409  23.95811  23.95983  23.96516  23.96864
 Alpha virt. eigenvalues --   23.97142  23.97186  23.98231  23.99018  23.99772
 Alpha virt. eigenvalues --   23.99907  24.00662  24.00987  24.01397  24.01706
 Alpha virt. eigenvalues --   24.02898  24.03736  24.09152  24.10754  24.11562
 Alpha virt. eigenvalues --   24.12344  24.12651  24.13578  24.13954  24.14051
 Alpha virt. eigenvalues --   24.14828  24.15436  24.21521  24.21848  24.22988
 Alpha virt. eigenvalues --   24.23466  24.24343  35.11140  35.62627  36.23295
 Alpha virt. eigenvalues --   50.03276  50.05849  50.13907 141.33027
          Condensed to atoms (all electrons):
 Mulliken charges:
               1
     1  C   -0.176466
     2  N   -0.419291
     3  B    0.695485
     4  C   -0.330158
     5  C    0.198198
     6  O   -0.412708
     7  C   -0.063546
     8  C   -0.288959
     9  C   -0.310231
    10  C   -0.145872
    11  C   -0.103463
    12  C   -0.109210
    13  C   -0.153384
    14  O   -0.447958
    15  C    0.118648
    16  C   -0.296911
    17  C   -0.275992
    18  N    0.076556
    19  N    0.099981
    20  Si   1.145446
    21  C   -0.644730
    22  C   -0.668429
    23  C   -0.401383
    24  C   -0.107285
    25  C   -0.099895
    26  C   -0.090084
    27  C   -0.115187
    28  C   -0.099497
    29  C   -0.100851
    30  C   -0.125471
    31  C   -0.104301
    32  C   -0.100793
    33  C   -0.098326
    34  C   -0.120440
    35  O   -0.421783
    36  C    0.125240
    37  C   -0.059888
    38  C   -0.084017
    39  C   -0.097808
    40  C   -0.282887
    41  C   -0.076911
    42  C   -0.098908
    43  C   -0.288738
    44  C   -0.097493
    45  C   -0.060646
    46  C   -0.130704
    47  C   -0.079058
    48  C   -0.285992
    49  C   -0.087745
    50  C   -0.117039
    51  C   -0.289765
    52  C   -0.077640
    53  C   -0.097613
    54  C   -0.284001
    55  C   -0.182125
    56  H    0.179620
    57  H    0.278139
    58  H    0.132506
    59  H    0.105165
    60  H    0.132371
    61  H    0.150951
    62  H    0.141424
    63  H    0.117901
    64  H    0.139374
    65  H    0.132524
    66  H    0.123731
    67  H    0.116492
    68  H    0.131803
    69  H    0.181707
    70  H    0.176616
    71  H    0.169604
    72  H    0.185403
    73  H    0.163757
    74  H    0.181775
    75  H    0.143372
    76  H    0.145709
    77  H    0.168749
    78  H    0.171618
    79  H    0.120777
    80  H    0.128404
    81  H    0.132604
    82  H    0.130547
    83  H    0.154616
    84  H    0.133141
    85  H    0.127876
    86  H    0.134685
    87  H    0.132548
    88  H    0.124539
    89  H    0.116700
    90  H    0.148403
    91  H    0.134696
    92  H    0.119852
    93  H    0.102665
    94  H    0.146032
    95  H    0.122466
    96  H    0.133391
    97  H    0.129521
    98  H    0.102843
    99  H    0.132067
   100  H    0.137422
   101  H    0.136729
   102  H    0.103064
   103  H    0.160517
   104  H    0.120098
   105  H    0.126746
   106  H    0.120344
   107  H    0.160123
   108  H    0.176879
   109  H    0.180721
   110  H    0.148847
   111  H    0.160809
   112  H    0.141045
 Sum of Mulliken charges =   1.00000
 Mulliken charges with hydrogens summed into heavy atoms:
               1
     1  C    0.003154
     2  N   -0.141152
     3  B    0.695485
     4  C   -0.330158
     5  C    0.198198
     6  O   -0.412708
     7  C    0.068960
     8  C    0.099529
     9  C    0.088468
    10  C   -0.013348
    11  C    0.020268
    12  C    0.007281
    13  C   -0.021581
    14  O   -0.447958
    15  C    0.300356
    16  C   -0.296911
    17  C    0.255632
    18  N    0.076556
    19  N    0.099981
    20  Si   1.145446
    21  C   -0.155827
    22  C   -0.182352
    23  C   -0.401383
    24  C    0.013492
    25  C    0.028510
    26  C    0.042520
    27  C    0.015360
    28  C    0.055119
    29  C   -0.100851
    30  C    0.007669
    31  C    0.023575
    32  C    0.033892
    33  C    0.034222
    34  C    0.004100
    35  O   -0.421783
    36  C    0.125240
    37  C   -0.059888
    38  C    0.032684
    39  C   -0.097808
    40  C    0.120064
    41  C    0.025753
    42  C   -0.098908
    43  C    0.113151
    44  C    0.032028
    45  C   -0.060646
    46  C   -0.027861
    47  C   -0.079058
    48  C    0.120227
    49  C    0.015319
    50  C   -0.117039
    51  C    0.117596
    52  C    0.042704
    53  C    0.239390
    54  C    0.045567
    55  C    0.119729
 Electronic spatial extent (au):  <R**2>=          32484.9147
 Charge=              1.0000 electrons
 Dipole moment (field-independent basis, Debye):
    X=             -5.7001    Y=              3.0032    Z=             -1.1774  Tot=              6.5496
 Quadrupole moment (field-independent basis, Debye-Ang):
   XX=           -255.2798   YY=           -261.7009   ZZ=           -291.8503
   XY=             -1.3401   XZ=            -11.9984   YZ=             -6.9754
 Traceless Quadrupole moment (field-independent basis, Debye-Ang):
   XX=             14.3306   YY=              7.9094   ZZ=            -22.2400
   XY=             -1.3401   XZ=            -11.9984   YZ=             -6.9754
 Octapole moment (field-independent basis, Debye-Ang**2):
  XXX=            -48.3831  YYY=             95.7198  ZZZ=            -16.5894  XYY=            -75.9992
  XXY=             -2.0876  XXZ=             45.0459  XZZ=            -18.8928  YZZ=             15.1159
  YYZ=              4.4237  XYZ=             59.9174
 Hexadecapole moment (field-independent basis, Debye-Ang**3):
 XXXX=         -17907.0430 YYYY=         -15536.1289 ZZZZ=          -6261.6435 XXXY=           -255.3020
 XXXZ=           -263.1422 YYYX=             67.9027 YYYZ=           -201.5917 ZZZX=             75.9347
 ZZZY=             20.7747 XXYY=          -5780.7288 XXZZ=          -4126.9339 YYZZ=          -3621.6228
 XXYZ=           -298.0860 YYXZ=           -137.4914 ZZXY=             28.7389
 N-N= 8.573519387227D+03 E-N=-2.300786600788D+04  KE= 2.518491690992D+03
 1\1\GINC-SWAN-1-8\SP\RwB97XD\6-311G(d,p)\C47H57B1N3O3Si1(1+)\CCL59\03-
 Dec-2022\0\\# wb97xd/6-311g(d,p) int=ultrafine\\ol17ryu_e_int2_SSR_C_1
 _TSe_spe\\1,1\C,0,1.8325,0.131194,-1.652919\N,0,1.557444,1.445698,-0.9
 84369\B,0,0.671893,1.005963,0.314257\C,0,0.761924,2.03266,1.539909\C,0
 ,0.574589,3.421373,1.367065\O,0,0.352888,3.817266,0.063293\C,0,0.24552
 5,5.21774,-0.278321\C,0,-0.373356,5.254691,-1.668923\C,0,1.612665,5.90
 0634,-0.236119\C,0,0.594251,4.297765,2.458178\C,0,0.815591,3.793091,3.
 743258\C,0,1.018714,2.429865,3.944257\C,0,0.987391,1.570119,2.842845\O
 ,0,-0.693026,0.850524,-0.284411\C,0,-1.824925,1.466084,0.224903\C,0,-2
 .835405,0.397166,0.681008\C,0,-3.851002,0.833832,1.707258\N,0,-1.69031
 6,-0.604021,1.718445\N,0,-0.983202,-1.283657,2.224862\Si,0,-3.465898,-
 1.041057,-0.537661\C,0,-2.102431,-1.590683,-1.690028\C,0,-4.947971,-0.
 256518,-1.393889\C,0,-3.985435,-2.433035,0.603644\C,0,-5.235728,-2.427
 965,1.25294\C,0,-5.605961,-3.460387,2.115556\C,0,-4.73141,-4.525159,2.
 341507\C,0,-3.492253,-4.55684,1.698238\C,0,-3.123393,-3.522545,0.83693
 7\C,0,-2.553086,2.32163,-0.815418\C,0,-2.318711,2.109311,-2.178557\C,0
 ,-2.987221,2.872323,-3.136262\C,0,-3.897023,3.855857,-2.73978\C,0,-4.1
 19109,4.086969,-1.379605\C,0,-3.446942,3.325714,-0.422826\O,0,1.235801
 ,-0.291786,0.606625\C,0,1.989522,-0.879425,-0.449155\C,0,3.446738,-1.0
 63773,0.014591\C,0,4.332374,-1.876134,-0.704285\C,0,5.675288,-1.990886
 ,-0.331166\C,0,6.621229,-2.880256,-1.103884\C,0,6.120274,-1.285089,0.7
 93467\C,0,5.248334,-0.500309,1.554604\C,0,5.731927,0.208818,2.798355\C
 ,0,3.910645,-0.400486,1.153289\C,0,1.393311,-2.25057,-0.783213\C,0,1.2
 64984,-2.733679,-2.087838\C,0,0.712643,-3.996929,-2.343143\C,0,0.52522
 7,-4.477189,-3.763022\C,0,0.310602,-4.781658,-1.258826\C,0,0.461382,-4
 .337449,0.061918\C,0,0.09456,-5.226137,1.227887\C,0,0.998003,-3.06625,
 0.283298\C,0,2.882724,2.14244,-0.811026\C,0,3.855024,1.487278,-1.81904
 5\C,0,3.02196,0.421176,-2.57082\H,0,0.927124,-0.141623,-2.197047\H,0,0
 .952734,2.025714,-1.564884\H,0,-0.441925,5.697794,0.430898\H,0,0.26801
 6,4.723489,-2.382459\H,0,-0.473533,6.290284,-2.009414\H,0,-1.359113,4.
 786835,-1.672353\H,0,2.109462,5.761142,0.727408\H,0,2.263108,5.496069,
 -1.019962\H,0,1.501924,6.975675,-0.413073\H,0,0.447053,5.363134,2.3275
 65\H,0,0.834591,4.480802,4.584296\H,0,1.202371,2.04199,4.941986\H,0,1.
 153497,0.505217,2.985629\H,0,-1.589074,2.099501,1.090051\H,0,-4.339062
 ,-0.017145,2.188461\H,0,-3.429413,1.503722,2.462878\H,0,-4.621408,1.38
 5377,1.155986\H,0,-2.39897,-2.522795,-2.184473\H,0,-1.168525,-1.775108
 ,-1.155372\H,0,-1.902429,-0.84223,-2.46028\H,0,-5.72488,0.055809,-0.68
 8339\H,0,-5.393946,-1.001935,-2.063315\H,0,-4.658349,0.612036,-1.99187
 3\H,0,-5.940616,-1.618246,1.076518\H,0,-6.576288,-3.438309,2.603541\H,
 0,-5.018089,-5.33164,3.010454\H,0,-2.814795,-5.388914,1.863479\H,0,-2.
 158164,-3.573657,0.338689\H,0,-1.596639,1.357253,-2.474693\H,0,-2.7950
 43,2.702937,-4.191912\H,0,-4.418637,4.448901,-3.485043\H,0,-4.80555,4.
 867162,-1.063974\H,0,-3.602511,3.531241,0.633281\H,0,3.974498,-2.44189
 3,-1.560386\H,0,6.774529,-3.835024,-0.584663\H,0,7.605963,-2.413703,-1
 .21754\H,0,6.236194,-3.108491,-2.103016\H,0,7.165106,-1.361304,1.08918
 5\H,0,5.793162,-0.484682,3.647086\H,0,5.055927,1.020619,3.086562\H,0,6
 .73251,0.631702,2.655817\H,0,3.22072,0.200723,1.734053\H,0,1.587494,-2
 .131599,-2.933705\H,0,1.332485,-4.126873,-4.415344\H,0,-0.417649,-4.10
 2914,-4.183927\H,0,0.495802,-5.56983,-3.818057\H,0,-0.113892,-5.766304
 ,-1.443818\H,0,0.987585,-5.704345,1.649438\H,0,-0.377462,-4.655636,2.0
 35472\H,0,-0.590625,-6.024928,0.925422\H,0,1.13394,-2.702934,1.29687\H
 ,0,2.718272,3.206986,-0.970181\H,0,3.202772,1.999043,0.21947\H,0,4.682
 78,1.017899,-1.283857\H,0,4.276569,2.222086,-2.510252\H,0,3.604887,-0.
 471818,-2.800558\H,0,2.644609,0.82329,-3.518455\\Version=ES64L-G16RevB
 .01\State=1-A\HF=-2529.3933912\RMSD=3.558e-09\Dipole=-2.242596,1.18155
 52,-0.4632236\Quadrupole=10.654415,5.8804737,-16.5348887,-0.9963,-8.92
 04847,-5.1860328\PG=C01 [X(C47H57B1N3O3Si1)]\\@


 ERWIN WITH HIS PSI CAN DO
 CALCULATIONS QUITE A FEW.
 BUT ONE THING HAS NOT BEEN SEEN
 JUST WHAT DOES PSI REALLY MEAN.
 -- WALTER HUCKEL, TRANS. BY FELIX BLOCH
 Job cpu time:       0 days 13 hours  8 minutes 33.8 seconds.
 Elapsed time:       0 days  1 hours  6 minutes 10.7 seconds.
 File lengths (MBytes):  RWF=    968 Int=      0 D2E=      0 Chk=    104 Scr=      1
 Normal termination of Gaussian 16 at Sat Dec  3 14:50:11 2022.
